/*--------------------------------*- C++ -*----------------------------------*\
| =========                 |                                                 |
| \\      /  F ield         | OpenFOAM: The Open Source CFD Toolbox           |
|  \\    /   O peration     | Version:  2312                                  |
|   \\  /    A nd           | Website:  www.openfoam.com                      |
|    \\/     M anipulation  |                                                 |
\*---------------------------------------------------------------------------*/
FoamFile
{
    version     2.0;
    format      ascii;
    arch        "LSB;label=32;scalar=64";
    class       volScalarField;
    location    "1500";
    object      k;
}
// * * * * * * * * * * * * * * * * * * * * * * * * * * * * * * * * * * * * * //

dimensions      [0 2 -2 0 0 0 0];

internalField   nonuniform List<scalar> 
207032
(
0.0157618511853185
0.0167960791742317
0.0219874772235076
0.0209310606958067
0.0164763461161043
0.0163987330448088
0.0205332327368936
0.0198797945262919
0.019510975643367
0.0156667885322639
0.0160019501560773
0.0154894886146557
0.0153165026558765
0.0153811675051156
0.015548981502936
0.0161353779932783
0.0207216084038287
0.020528074629742
0.0157371464975198
0.015830195353134
0.0218652898616052
0.0218088663639531
0.0162938673115854
0.0156319328023017
0.0154429285442156
0.0155155770146212
0.0157279281257397
0.0165270750899173
0.0229434483812723
0.0230973504282694
0.0159823731098872
0.0168292532980192
0.0242154215853525
0.0240202421936744
0.0173593977848377
0.0173437866669404
0.0247592675280054
0.0233477264531765
0.0169337479436755
0.0170333888312348
0.0230868560227549
0.0223086901934958
0.0170934832012989
0.0169634006660025
0.0207072933657194
0.0194003427537389
0.0165805560329873
0.0160014002127483
0.0184433201223759
0.0170955689009429
0.0154593812236425
0.0151585878590201
0.0163352310475588
0.0157529012708749
0.0153139956459571
0.0150257862166731
0.0150622560130243
0.0150487548837862
0.01501419734797
0.0150104687650264
0.0150068865433513
0.0150209051388757
0.0150425427394239
0.015080656566786
0.0150462804997859
0.015157387616345
0.016377470480625
0.0164072602349603
0.015173339573623
0.0150558111154329
0.0150424544896475
0.0156348907028657
0.0157167443189617
0.0153049614873817
0.0153151788564451
0.0150205610831605
0.0150220947685383
0.0153518030467955
0.0171368293796961
0.0170256863091225
0.0152768209848314
0.0150893090854259
0.0151442462462512
0.0151583861557742
0.0150978048347356
0.0153752323105883
0.0156016257810487
0.0156201888562989
0.0153897531471173
0.0152670673977657
0.015409439051572
0.0151770167877065
0.0151112150857646
0.0150777547214312
0.0151146469388887
0.0151933280324912
0.0151284946928938
0.0151791609532966
0.0152431238155747
0.0152884177351907
0.0152323416565542
0.0152892008195977
0.0153558876127152
0.0154807568281635
0.0153628056664867
0.0156932455713444
0.0159885200833621
0.0163549071520413
0.0161064158583993
0.0174187647915246
0.0256699409136165
0.0253538585729334
0.0178642061709232
0.0180154766717455
0.0259587197370888
0.025279527429107
0.0175775610489988
0.0178953923129256
0.0261740084688622
0.0269915314523119
0.0181226154778364
0.0182586670544986
0.0265712558847719
0.0268055793720161
0.018403318627592
0.0181344064233018
0.0273410749018933
0.0300872571035739
0.0195042734135016
0.0192227542756797
0.0290579730477124
0.0285363506123304
0.0185521179645509
0.0183660767679298
0.0303875466438412
0.0293154363304169
0.0176893302327234
0.0172660498290015
0.0263662714018935
0.0242387118951007
0.0171395029699084
0.0167650025920057
0.0232766793362081
0.0217034904597911
0.0166906843663272
0.0165092353163408
0.020385771658194
0.0191282917636405
0.0161765283511606
0.0164380159666219
0.0202472473217635
0.0181784126943085
0.0158001087124062
0.0154920553519316
0.0171666837973614
0.0164044982087603
0.0152255698118123
0.0150576683912823
0.0150234703666629
0.0153197462405163
0.0158162702756444
0.0158129969261098
0.0152850125875267
0.0150104145526708
0.0150322215265387
0.0150185870815524
0.0150071929523875
0.0150120208645506
0.0150339956113568
0.0150384847594468
0.0151231388490753
0.015092455678167
0.0151789028070257
0.0163975819484303
0.0164203130450655
0.015114205679131
0.01501517834292
0.0150033146497207
0.0152869459505678
0.0158169611500006
0.0159095669167015
0.0153427516992489
0.0150009882256327
0.0150115649832161
0.0150062960494192
0.0150037254422584
0.0150018054812162
0.0150037379042556
0.0150080272838818
0.015003073356122
0.0150046852177441
0.0150159523624129
0.0150104655280705
0.0150040489255139
0.0150026490577725
0.0150036560318895
0.0150007375064346
0.0150004758773724
0.0150010934938472
0.0150024432530667
0.015005719158144
0.0150025095520884
0.015006843316608
0.0150179847452768
0.015058999240598
0.0150298026417428
0.0150142088188613
0.0150235658195375
0.0150649429074626
0.015046780940947
0.0150709273084035
0.0150885248606703
0.0151206213851405
0.0151056260291039
0.015142168456587
0.0151758044176095
0.0152163660188693
0.0151816169435537
0.0152268440644051
0.0152625174170099
0.0152782171932868
0.0152419110211018
0.0152986169009405
0.0153510523877907
0.0153703915048716
0.0153170827535818
0.015455672043475
0.0155962966630741
0.0156361598361793
0.0155169795832159
0.0161644698226378
0.0163874705708325
0.0163731997229154
0.0161633271972101
0.0179794219151823
0.0181428622949454
0.0182727480724948
0.0183028510584024
0.0181265685928047
0.0181068866955985
0.0192370476948891
0.0306315038328584
0.0315719036843307
0.0194714169220788
0.0196235906354049
0.0350518790045248
0.0332708519672151
0.0194317012635412
0.018655408841457
0.032087661005984
0.0304293238355503
0.0185419319290155
0.0166983493529876
0.0160868156849214
0.0159316252205399
0.0158923498363579
0.0158394413195791
0.015963712836019
0.0159728532608023
0.0162828227566512
0.025661723581652
0.0242209155303731
0.0161989878444613
0.0161531876883767
0.0229097624771935
0.0216679930149418
0.0161313383971873
0.0160857261024196
0.0203386851387429
0.0203442747660594
0.0160671536565524
0.0161552481562469
0.0196495695902525
0.0181937127999927
0.0156976039346084
0.0153847346255192
0.0171657345244337
0.0171908854689819
0.0152429463072787
0.0153714594605359
0.0174192907254626
0.016575495967027
0.0151585848072879
0.015133869974468
0.0166614179408744
0.0159604058702568
0.015373155065844
0.0150032600581736
0.0150099514688532
0.015006598052275
0.0150029617224068
0.0150016702065103
0.0150036741812477
0.0150037625484808
0.0150016588678145
0.0150016143260007
0.0150041376414609
0.0150047216389175
0.0150015618232497
0.0150008234246948
0.0150043739471153
0.0150023091452098
0.0150016667753518
0.0149996658578789
0.0149997677624368
0.0149995448107465
0.0149989933696263
0.0150016576734047
0.0150044035835196
0.0150185656731515
0.015010358585799
0.0150073449993783
0.0150097294449977
0.0150310822878583
0.0150222672367312
0.0150568384470058
0.0150749258273959
0.0150946829411616
0.0150808072253305
0.0151133779778495
0.0151234836840211
0.0151130406856393
0.0151020009930287
0.0151351181661997
0.0151452055764442
0.0151560059605176
0.0151407081293173
0.0151752249400713
0.0151892506195532
0.0152077573497768
0.0151928616903849
0.0152438510962121
0.0152787497641969
0.0153000890392786
0.0152656799084479
0.0152857970259269
0.0153200110581045
0.015339814685647
0.0153059561516454
0.015368763784682
0.0154296535257693
0.0154495376195651
0.0153906709315901
0.0154802439081081
0.015606742086358
0.0156203612331273
0.0155045659876208
0.0155564122468651
0.0156608685433794
0.0164275067745759
0.0162302767288388
0.0162192422672023
0.0164117581966121
0.0165623584899543
0.0163921425364844
0.0182358860020346
0.0181924020577435
0.0186361076084332
0.0187410136364262
0.020859639044484
0.0200686100093478
0.0356806509332387
0.0379107378378242
0.042987063336194
0.0392392275568987
0.0201300937555741
0.0214758689051327
0.0189335556552992
0.0193193937896851
0.0193258175493538
0.0189614156073478
0.0214004292386829
0.0202306207771607
0.0419547570317687
0.0457989651839743
0.0440559108768324
0.0208650776025795
0.0201141599918628
0.0417041327493426
0.0432968871862152
0.0201303215274604
0.0202110287739918
0.0436429894987831
0.0390554399039134
0.0202221569960289
0.020229700803394
0.0398082019143907
0.0363994644190986
0.0202195914182401
0.0193893724555841
0.0360047607124697
0.0339083713578922
0.0190332519391623
0.0197335484462133
0.0340819254733551
0.0339238560274416
0.0195488781918748
0.0179941484042695
0.0298294750282732
0.0272770695093921
0.0172356751625056
0.016861943973126
0.0250485111557718
0.0244710532653954
0.0166556158847213
0.0166294630151311
0.0228750214870149
0.0214099787174914
0.0165941443637866
0.0165767478637878
0.0214819138173314
0.0223921184525483
0.0164451498131986
0.0163365854128191
0.0205617361161814
0.02203092072589
0.0163449506172059
0.0161344462164874
0.0215266468012063
0.0228201068540202
0.016154165513129
0.0161792298030836
0.0243328383436037
0.0260459875594109
0.0162368216034088
0.0163099827936802
0.0280188203722183
0.0270684783211661
0.0166806966546036
0.0178630550611949
0.0286576153969427
0.0252426412812104
0.0162153677785087
0.0161011430946696
0.0226497333173811
0.0202099389870323
0.0160350322768542
0.0156185152422024
0.0185569670473751
0.0186634324967172
0.0154507150260562
0.0153333138614074
0.0175281684806985
0.0173192930647625
0.0151288144176626
0.0150602025488103
0.0165549527609606
0.0159013138842182
0.0153407317278332
0.015001630360518
0.0150071235113911
0.0150113472340429
0.0150025715702995
0.0153398149646563
0.0158978747188549
0.0165496890747911
0.0150680912230588
0.0151451681573691
0.0166561655932812
0.0159570541668845
0.0153704870393457
0.0150047496948828
0.0150090278163863
0.0150087969999341
0.0150033728922367
0.0150028002739829
0.015006237483514
0.0150048414800624
0.0150018089792973
0.0150015709130189
0.0150051293089657
0.0150066309014704
0.0150016976330445
0.0150014135098905
0.015011553356836
0.0150434246068132
0.0150089165672307
0.0150050091399391
0.0150021644081709
0.0150179712903094
0.0150368798047164
0.0150769411462779
0.0150453949116773
0.0151035659962529
0.0151683990669285
0.0150694879031695
0.015039501004759
0.0150895364702818
0.0151295141479785
0.0151549675331894
0.0151197345436163
0.0151598361335168
0.0151945606808393
0.0151317070995876
0.0151184507598453
0.0151537671203978
0.0151664441559507
0.0151556918722501
0.0151466500945008
0.0151776309195461
0.01518672545771
0.0151778656539146
0.0151690012780902
0.0151849359832011
0.015194673590164
0.0152055141754074
0.015191179948148
0.0152099129615572
0.0152238706706882
0.0152265874251591
0.0152121958696004
0.0152311931814029
0.0152455654652982
0.0152651053396025
0.0152506587680827
0.0152699989161122
0.0152849385794604
0.0153584574848861
0.0153253352202053
0.0153423192498465
0.0153744773734073
0.015465566361393
0.015410314337445
0.0154292024672027
0.0154815528850314
0.0156335143196993
0.0155273252298193
0.0156116075111191
0.0156887999060506
0.016484348352094
0.0163105281556345
0.0165164113293717
0.0166311946527175
0.0172257094472835
0.0170543945733613
0.0171271402549907
0.0172835324891239
0.0189537089944369
0.0186438913761234
0.0186028446395704
0.0187508836543655
0.0200804039707717
0.0439893431739898
0.0468722208928829
0.0206997459185191
0.020715050145566
0.0510640063587794
0.0476708249251288
0.0201127161337506
0.0200406858306175
0.0490346665451513
0.0453987931357324
0.0200495519411033
0.0202215912708162
0.0422000560214918
0.0437513683438224
0.0202727416245555
0.0198568292530263
0.0394781308451916
0.0364856446638431
0.0197750940437235
0.0197410602072832
0.0356876713469094
0.0337505982870579
0.0195220025681257
0.0192444736429268
0.031077213269973
0.0283914137819312
0.0175927487085243
0.0167841709446756
0.0263119086010583
0.0265488262470113
0.0167165018812111
0.0166514397789947
0.0247118349405268
0.0230705024967038
0.0166093381692997
0.0164739272325788
0.0242598232690181
0.0235884667346269
0.0163625367338902
0.0163975369312937
0.0254279282387211
0.0276015319154379
0.0164571204704814
0.0165362647728649
0.0301316923794646
0.0330492488514701
0.0166846636222064
0.0168581076246536
0.0305188685774068
0.0290364101250766
0.0175851854367986
0.0182620254875229
0.03000747362316
0.031862807992797
0.0183483290337264
0.0182199168478054
0.0305851452537762
0.0296789591077556
0.0172598743301715
0.016733145229832
0.026061136051063
0.0237848034854517
0.0159071205900368
0.0157694605978063
0.0217791761253178
0.0200771159567156
0.0155970713343562
0.0153855873251721
0.0193184199721747
0.0182306988918363
0.0152165891463083
0.0152755375357065
0.0182184522312737
0.0173128934482683
0.01513582707478
0.0153548525403606
0.0175183836706828
0.0174084642391787
0.0154458672831767
0.0152671741483693
0.0171650531671464
0.0171483503041588
0.0153698231806529
0.0151671192226279
0.0163892707876388
0.0158087682281409
0.015282518096902
0.0150062332599085
0.0150261484498266
0.0150135643578567
0.0150039503493505
0.0150085843355496
0.015030682446558
0.0150513311665894
0.0158154718854799
0.0153167900406433
0.0150170747489646
0.0150270911029381
0.0153126238809406
0.0157543231502295
0.0150625454402598
0.0152643811775832
0.0163401259556836
0.0164223370069266
0.015251313738665
0.0151625959405603
0.0163711089180477
0.0170316962103115
0.0172044791464418
0.0155180251368819
0.0153560949354083
0.0156534530034728
0.0157846072652185
0.0184722914332279
0.018076973614615
0.0186945535269183
0.0191391933316852
0.0158669298590121
0.0156499591292837
0.0153997653295308
0.0156101644127442
0.0155899474030119
0.0153856474878784
0.0151147873361142
0.0151847267643447
0.0152091011814513
0.0151315644025175
0.015278115378528
0.0154129855243416
0.0154868803510236
0.0153281937221005
0.0154033052921711
0.0155646690819524
0.0152709093900572
0.0152112396472424
0.0152837607132874
0.0153384728100089
0.0152383763374023
0.0152034484830559
0.0152512148021715
0.0152816284064388
0.0151981288673161
0.0151854093145464
0.0152340365471672
0.0152438430037232
0.0152209878491827
0.0152129738979508
0.0151823502897696
0.0151925992387735
0.0152137635463853
0.0152055945272203
0.0152036352449668
0.0152130579905824
0.0152322036785848
0.0152228263968535
0.0152290331413022
0.0152429062623818
0.0152625327220856
0.0152486321981948
0.0152680992462301
0.0152824886640467
0.015302367802072
0.0152860308970506
0.0152877008687675
0.015304547010801
0.0153250964395923
0.0153059617548074
0.0153592430937011
0.0153908937205482
0.015397278967096
0.0153692997799089
0.015382978255571
0.0154088293625252
0.0154905341441125
0.0154477435171114
0.0154568117394976
0.0155005816778655
0.0156359057549696
0.0155487079155565
0.0155630193245909
0.0156532689082205
0.0157041822129998
0.0156339366491259
0.015652245883941
0.0157091079501222
0.0157121019132247
0.0157264311413283
0.0156212936004479
0.0156927144644186
0.0156910062660162
0.0156175085657992
0.01554034512169
0.0156375909669959
0.0156290745816709
0.015534180092433
0.0154404873420295
0.0154875812146428
0.0154827174165153
0.0154364165139294
0.0154902176744999
0.0155236727075476
0.0155319683456765
0.0155342799879891
0.0155339532862069
0.0155078907791313
0.0155063137468654
0.0155021947859476
0.0155001084561435
0.0155146161539451
0.0155136655200498
0.0155371785577725
0.0154440670226834
0.0154338882318654
0.0154308630177446
0.0154346203647191
0.0154450989735775
0.0154394326601289
0.016386537866541
0.0238994579562845
0.0221396040165373
0.0156828570389279
0.0154974769639765
0.0206345013092937
0.0207471561492121
0.0156429127777024
0.0155441713064548
0.0193269904425369
0.0200144431116113
0.0159657214697761
0.0155527422126678
0.0186347836889661
0.0185944834817632
0.0157184499070043
0.0155002142656191
0.0181357335831463
0.0181578688022387
0.0156529887855748
0.0157792092790183
0.0182242734374578
0.0186383942552235
0.0159816942398883
0.0166027786379456
0.0196438733934152
0.0203498153552393
0.0166705199788707
0.0164667617646134
0.0207286857907971
0.0211441214529761
0.0166177903262611
0.0162576717834863
0.0158609616131899
0.0205255218969167
0.0209129568933735
0.0200664785693158
0.0159746235862041
0.0156912846062024
0.0195988257017375
0.0220661143644849
0.0217252753560871
0.0162692064884832
0.0166415642156969
0.0157282739609437
0.0155228862238086
0.0157859201902985
0.0160248938703061
0.0154427497556653
0.0153848059746238
0.0154138233305328
0.0154701164917294
0.0153064744092267
0.0152754331718712
0.0152672652263965
0.0152986297190862
0.0153063219420596
0.0152781258647272
0.0152998786759621
0.0153280367157662
0.0152648260431706
0.0152516803324649
0.0152522746463142
0.01526307927309
0.0152397541417701
0.0152305721753795
0.0152298583191125
0.0152393016577437
0.0152328225988347
0.0152247408461107
0.0152449999956812
0.0152531004788612
0.0152521314957432
0.0152427304450359
0.0152626817139133
0.0152728140522277
0.0152940382204443
0.0152812366615049
0.0153006807095053
0.0153165772394448
0.0153233242029523
0.0153046457324811
0.0153145724134546
0.0153305639477263
0.0153422193365605
0.0153279269526411
0.0153289590513998
0.0153435736229639
0.0153434082027282
0.0153286304566659
0.0153766934855192
0.0154018591698012
0.0154110830235505
0.0153878557331654
0.0153971756367292
0.0154215205395964
0.0154996504877676
0.0154601009620044
0.0154735301421525
0.0155147100722259
0.0156447719888064
0.0155643877892501
0.0155848072227848
0.015670707150933
0.0157214680802601
0.0156521858679947
0.0157106603389776
0.0157523828111727
0.0161203454237785
0.0161108770094683
0.0161411488663148
0.0161442186697348
0.0166764359423751
0.0165736043589086
0.0166313523782714
0.0167219738415961
0.0173278595197882
0.0171850716706836
0.0172571690305674
0.0173894361346751
0.018731103463561
0.0186192572710456
0.0186671011867506
0.0187732892435743
0.0201886978873697
0.0520267170163338
0.0561665464388681
0.0207771112666588
0.0208677563494019
0.0624361846581883
0.0573000685345576
0.0202897675095224
0.0201472516641451
0.0595168625128618
0.0537594530908392
0.0200798278154787
0.0203881242910873
0.0517271005066982
0.0538532311004776
0.0203900480898317
0.0203278739832554
0.0485293592329875
0.0429956820285408
0.0207332433395149
0.0212006686362465
0.0399298597022339
0.0374515344434773
0.0199598768707774
0.0178679988540896
0.0171132395216152
0.0166416438245138
0.0164911919282472
0.0188214460968762
0.0311227305720997
0.0286193782187379
0.0172795820153278
0.0166901957079447
0.0315017471395176
0.0287378357609867
0.0165582815101798
0.0165102856389962
0.0263229581556986
0.016329977153798
0.0159512767759653
0.0159798161251191
0.0155573857576229
0.0156344260006808
0.0161637559163909
0.0165871236958571
0.0179857372714134
0.0315198841458209
0.0340326486223023
0.0186344571539475
0.0191122550988084
0.0340932531155565
0.0278726969180294
0.017385081829174
0.0168152488589833
0.0268325216870892
0.0273973354281908
0.0174637288603032
0.0165743698715766
0.0240841269782448
0.0223576407602749
0.015859399210792
0.0163793085106775
0.0248062196919567
0.0222818127519474
0.0161506981256651
0.016596106120768
0.0216642143397864
0.0228864434825908
0.0166509093270828
0.0166009226339072
0.0214025650430841
0.0204759815065182
0.0160077482026701
0.0159841814946783
0.0202540983172384
0.0195976885579188
0.0160682718807185
0.0163969817082925
0.0203908259574221
0.0193598648703024
0.0161813231523484
0.016590258803656
0.0206894250787224
0.021064914606246
0.0171367037436481
0.0171629496455962
0.0217431289378289
0.0223148396460698
0.0170960780903381
0.0173736492095636
0.0237424380300341
0.0233047296375534
0.0228577751819335
0.0165350681520468
0.0169345868706567
0.0174034199642571
0.0170961377029627
0.0243438450677861
0.0246529323105039
0.0250837230314995
0.0177030830398265
0.017944603767573
0.0268330154047417
0.0263925933370702
0.0264459504242554
0.017875553236017
0.0180499852674035
0.0174781196925593
0.0171391319302841
0.0169782395031086
0.0173773105338603
0.01606948118909
0.0158479294577339
0.0158469071341665
0.0160663305827913
0.0154996785434782
0.015432568589852
0.0154683724795907
0.0155344845307734
0.0155013734161044
0.0154475912274005
0.0152979999489279
0.0153283218945451
0.0153512736166427
0.0153212259900499
0.0153447644536924
0.0153749626865214
0.0153500888272686
0.0153224141486
0.0152733088324162
0.015286256655858
0.0152842083837006
0.0152736249719875
0.0152513391333471
0.0152604313574024
0.015259783512051
0.0152504358848802
0.0152710460709393
0.0152812612184809
0.0152743488394925
0.015265429929999
0.0152845586486044
0.0152964567039723
0.0153200862594546
0.0153047263960833
0.015315479191682
0.0153283084302119
0.0153410474790153
0.0153299414951077
0.0153257376255723
0.0153371789413349
0.0153365382604955
0.0153248569910178
0.0153281002092979
0.0153420437139386
0.0153550510625638
0.0153420439679547
0.0153418795435118
0.015355347734212
0.0153563167910294
0.0153425828932757
0.0153422199823154
0.0153561328652431
0.0153690075234816
0.0153550496324586
0.0153979617685601
0.0154205520722736
0.0154340735118701
0.0154098567560621
0.0154705794661764
0.01550907054152
0.0155286597258764
0.0154877831010725
0.0155765878042212
0.0156544485054396
0.0156879818350395
0.0156023351909385
0.015669098394378
0.0157397075939881
0.0157731280530541
0.015731487500895
0.0157521056832114
0.0157940482473299
0.0163155889905403
0.0163073834552594
0.0163148462010261
0.0163155079021614
0.0164130840742602
0.0164184838674251
0.0164159315147408
0.016400722499752
0.0167706505337425
0.0166925623642184
0.0167571424944568
0.0168234432664929
0.0174717207661786
0.017341277865369
0.0174337267317491
0.0175638833611695
0.018836307814371
0.01873412538158
0.0188151684506022
0.0189113021735388
0.0204065322434965
0.0635295023022204
0.0698674075824623
0.0209750376167782
0.0210999049913805
0.0205399116801012
0.070968536171028
0.0789033377405366
0.0898231696633249
0.0212409728928766
0.0206894987946235
0.0797800864140621
0.0835994821932246
0.0204454795771884
0.020326691580557
0.0742732438962148
0.066313113795521
0.0202283389260399
0.0209801109619237
0.0658323909211457
0.0659348424899569
0.0205531813411443
0.0204590863641316
0.0594880397093437
0.0547253451368613
0.0231419649201931
0.0227147742274246
0.0482931188998673
0.0433106895962496
0.0231250039696917
0.022035096303411
0.0387129908311949
0.0355028601387536
0.0213202798723474
0.0204242360420516
0.0350327137586351
0.0387864012616332
0.0188693752111309
0.0179136419907299
0.0346599121851722
0.0166125236762586
0.016213616669082
0.0163416148726386
0.0158345754734447
0.0158058876046265
0.0158930840512637
0.0155140172655552
0.0158207442208575
0.0162830442891704
0.0175972902822899
0.0280175731072915
0.0287377050541397
0.0179936676853972
0.018086530476444
0.0289994394682617
0.0329999603017338
0.0192169205092491
0.0182711790412718
0.0305499004883588
0.0291729655690582
0.0181089936347315
0.0177365128011124
0.0278247890497847
0.0268581768389529
0.0171321853938184
0.0169707036930599
0.0315329635246201
0.0288536059946542
0.0168413284227974
0.0167424484251542
0.0265996001989937
0.0245657674312694
0.0166664239028726
0.0166193266036045
0.0242848328891678
0.0231326437845118
0.0161119434211424
0.0163597679141843
0.0235180524988827
0.0220542278418796
0.0162952644960101
0.0162568220935055
0.0205176361439493
0.0224505187392653
0.016368453881194
0.0165716993441227
0.021667899119547
0.0216939618517262
0.0166396003814663
0.0169860949901649
0.0223447055542406
0.023292578222722
0.0178221284009158
0.0179056359263897
0.0236717381290124
0.0245700071884172
0.0177363298073718
0.0180979798288626
0.0247410377097152
0.0268702909412426
0.0181945415151219
0.0182193471551767
0.0286174369540289
0.0281495806430459
0.0179576888293048
0.0180486060376738
0.0178282013781876
0.0277790230600457
0.0274480170397863
0.0286730336452639
0.0294661543201835
0.0178512839877608
0.0180825521811382
0.0172904602450425
0.0170007891756816
0.0160035097779341
0.0162277692618452
0.0161793531176108
0.0159780296364467
0.015504014299616
0.0155702322992073
0.0155295037205191
0.0154771934557921
0.0155044192906056
0.015555593318931
0.0155784199207455
0.0155288381013422
0.0153680355903469
0.0153985103008747
0.0153713898047576
0.0153439264098315
0.0152950447350855
0.0153087115430318
0.015306337023709
0.0152950139148353
0.0152722233710769
0.0152821563180066
0.0153049708637906
0.0152919772371116
0.0152904298487454
0.0153036086509473
0.0153277323319262
0.0153110252455294
0.0153222101155615
0.0153362871076979
0.0153497993804191
0.0153375581532469
0.0153309711670138
0.0153418820833445
0.015357085813566
0.0153467565440029
0.0153451443545623
0.0153557434829446
0.0153512930430315
0.0153405612796085
0.0153393305001762
0.0153503749614551
0.0153645168486899
0.0153533184959247
0.0153553827744252
0.0153683473369007
0.0153686506406828
0.0153551276630583
0.0153554964648076
0.0153692777568598
0.0153823423949554
0.0153681436281985
0.0153675859229492
0.0153819507283948
0.0154301851496872
0.0154077807605961
0.0154218633325655
0.015446405228513
0.0155186243588398
0.0154804733431174
0.0155009870562537
0.0155422799948543
0.0156645194209764
0.0155876730332115
0.0156183624561976
0.0157048682233873
0.015758080453983
0.0156856661797511
0.0157022632957703
0.0157764142841123
0.0158142592732865
0.0157714850292491
0.0157908954044495
0.0158346616152304
0.0158545009584942
0.0158096385186289
0.0158287539134381
0.0158747611434573
0.0164792938769785
0.0165014777653047
0.0164963626667145
0.0164644397992833
0.0165382890017925
0.0165757713087487
0.0165686030194086
0.0165225187905298
0.0168794406501945
0.0168222942125827
0.0168831234738472
0.0169370452164198
0.0176617930809528
0.0175326746908468
0.017635640928728
0.017765314978468
0.0189972979206776
0.0189085863675607
0.019012361557417
0.0190944405350448
0.0192015204174063
0.019124340421803
0.0213991842320784
0.103158887202617
0.0902856481833742
0.020855092935951
0.020580603225651
0.0945515470534308
0.0998946827821099
0.0212611938017043
0.020954175492554
0.0959694446660809
0.0836566494182822
0.0207758587898832
0.0206585032692682
0.0738179474485006
0.0706108491407149
0.0228032573305289
0.0229593762538028
0.062232780816293
0.0632752692895042
0.0243355025858349
0.0245007636309617
0.0541958820384694
0.0490502413688254
0.0245625405520983
0.0245922738611894
0.0461326881445256
0.0552441102537034
0.024515098192508
0.0234285957733101
0.0225892720175744
0.0232072871511676
0.0429485616911945
0.0416199383311496
0.0231453795857644
0.0231045395823
0.0416019494942686
0.0384855128695194
0.0223448602808414
0.0221417253997042
0.0374660811083151
0.0410523848438376
0.0222163582047424
0.0206191741207101
0.0406302641364067
0.0440466605398028
0.0190499771028982
0.0171446786490855
0.03977990983304
0.0362382695988582
0.0168934167484485
0.0169987916232436
0.0335396771660131
0.0336789540973189
0.0180164980925012
0.0180353166490021
0.0372595249351092
0.0345706459545085
0.0184032308938542
0.0185533155516825
0.0378985946902571
0.041655972366228
0.0186948643859026
0.0187511807219492
0.0375445061732417
0.0419197592040762
0.0214788797070369
0.0208020094435095
0.0373745266946718
0.0364872732110486
0.0198529900526174
0.018689999878851
0.0329179047837463
0.0308743237095637
0.0182618887139838
0.0179734596344868
0.029658255682151
0.0304374867118395
0.0182417650643776
0.0182489018093541
0.0310694561270239
0.0362105943212141
0.0193903966356861
0.0214431608357909
0.0417376740911556
0.0360076269666657
0.0205179836325076
0.0192007661042613
0.0326720290118379
0.0298119515747944
0.0187607404319087
0.0182757664199276
0.0316254550361269
0.037764789363799
0.0173229551026733
0.0171505809851154
0.0343579982656064
0.0339529144369975
0.0171278730216906
0.0167562742269765
0.030262711213882
0.0316045495935388
0.0170742095227416
0.0168291346903592
0.0292697450214945
0.0271220805728114
0.0166233116323434
0.0164671724121042
0.0251908459496372
0.0261414203798384
0.0165625732347807
0.0167830121091985
0.0247364803508661
0.0247251320400234
0.0168550503202641
0.0172441231544972
0.0260268687313546
0.0294240048237266
0.0179689817188379
0.0181246803049631
0.0294988405969367
0.0308355413060214
0.0182888686096368
0.0179765613635081
0.0297120581068453
0.0313123629706652
0.0180399987470418
0.0181613179208011
0.0179230435424486
0.0312425188364439
0.0300260051648021
0.0315066367561588
0.0332499354515607
0.0180497168168096
0.0182910767687176
0.0174710334502913
0.017172876519203
0.016160653936193
0.0163913947961197
0.0162675261248552
0.0160765545054312
0.0155739325473687
0.0156393377471363
0.015668518004101
0.0156047419605484
0.0155493640243029
0.0155966405174766
0.0154208955734317
0.0153893802385995
0.0153636246358132
0.0153916872013034
0.0153321085088628
0.0153156351306802
0.0153152519858962
0.0153295545748032
0.0153552401635938
0.0153371441945584
0.0153132360039045
0.0153299879366362
0.0153389830881141
0.0153250236195449
0.0153413644592915
0.0153532381732234
0.0153499194042073
0.0153380228470915
0.0153548370595481
0.0153660942748986
0.0153658805462108
0.0153540207220456
0.0153707320545719
0.015383072383268
0.0153730885655973
0.0153625129636647
0.0153601264735931
0.0153709932047592
0.0153658418576958
0.0153550020992722
0.0153694618331244
0.0153807904867186
0.0153789070184483
0.0153671795321907
0.0153685185472774
0.015381849709544
0.0153820502927421
0.0153680777974058
0.0153813572177354
0.0153957178476442
0.0153956473424444
0.0153810543849634
0.0153803604030562
0.0153951054970651
0.0154401655476688
0.0154179213475577
0.0154339262972767
0.0154587561317389
0.0155285425663887
0.0154906602877856
0.015514222519887
0.015555908261148
0.0156751209945477
0.0155991227695699
0.0156344318109418
0.0157216279309096
0.0157381878027616
0.0156504620195919
0.0157188317428921
0.0157947033681776
0.0158129550094025
0.0157353904745933
0.0157519928508566
0.0158311939208676
0.0158494129458936
0.0157686519153015
0.0158474634734162
0.0158946202503593
0.015915016455222
0.015866721944318
0.0158856536846682
0.0159350445137477
0.0159556222833004
0.0159051716814958
0.0166444319493123
0.0165933465151991
0.0165756310377538
0.0166347369473318
0.0167067239320575
0.016643767431069
0.0166234674496928
0.0166943547190327
0.0169397843960211
0.016994895260396
0.0170517932595563
0.0169934061259743
0.0177398169405794
0.0178725615421255
0.0179809007163642
0.0178422123204319
0.0179382735560599
0.0180865939121821