/*--------------------------------*- C++ -*----------------------------------*\
| =========                 |                                                 |
| \\      /  F ield         | OpenFOAM: The Open Source CFD Toolbox           |
|  \\    /   O peration     | Version:  2312                                  |
|   \\  /    A nd           | Website:  www.openfoam.com                      |
|    \\/     M anipulation  |                                                 |
\*---------------------------------------------------------------------------*/
FoamFile
{
    version     2.0;
    format      ascii;
    arch        "LSB;label=32;scalar=64";
    class       volScalarField;
    location    "1500";
    object      omega;
}
// * * * * * * * * * * * * * * * * * * * * * * * * * * * * * * * * * * * * * //

dimensions      [0 0 -1 0 0 0 0];

internalField   nonuniform List<scalar> 
207032
(
3.36592290154906
8.27050642389336
28.5219834878379
25.8065282905202
7.03428252327036
6.83455868953381
25.4349455058524
24.1323310996878
26.6476665572214
4.51399477183968
5.11759392196572
2.58167361401505
2.17016820094032
2.29017471274986
2.69034276559016
5.546932850402
25.4553294881196
28.3486741817279
4.68687736138125
4.87104794067039
30.1645704397358
27.1631786857873
6.09201607505715
2.90674531122448
2.4125317656251
2.59130289168167
3.15757572638661
6.82458946167387
29.1525768295886
31.9069795511201
5.38597545151772
8.56095256312421
37.0412946414376
34.572752551076
9.77684243940829
10.0641871906582
35.8781198528412
31.6732942008992
8.7653124688336
9.62912420844449
35.4636877523125
34.2073545146702
10.0514818965317
9.64850092785808
30.4639433950083
25.1981736464252
8.08168571953795
5.33443605320426
19.2693482524224
15.3436574394948
2.89278312563596
1.51860313370073
13.7386406451611
14.0712768197844
14.3850306867032
1.0760870290973
1.09084271191206
1.02279584566982
1.00357552571925
1.00224640063744
1.00113812696526
1.00461862083623
1.01643717329779
1.03082954198861
1.01220620792458
1.73826064994511
17.5347410931086
15.3108499249411
1.67928443566467
1.06975319672305
1.04183372636498
16.6687280168184
14.8780121730862
15.0809171333461
16.5571683396592
1.0305171834825
1.03791014487837
2.4419640189785
16.6743529016717
19.3501258518289
2.38537889980441
1.16065839203797
1.20588774247416
1.21192254917162
1.16346118576083
2.93309111630267
3.54363178681297
3.54383466995014
2.94129465474076
2.09335740025256
2.34752606598131
1.21882862383648
1.16797379996537
1.06017672272333
1.08352941564481
1.31751177387006
1.18729326261374
1.27978306916798
1.39996513747291
1.44401688265712
1.37048553169194
1.48145052836192
1.58023608032028
1.91358353929425
1.63357475629578
3.17525012529623
4.02850382824075
5.44005151471548
4.81545332752567
11.0837157538252
47.6654086782256
45.6289301451199
12.0508074068987
12.6602354019717
45.3007091810775
40.9945374474219
10.9378464874771
12.0876626830227
43.6688794332821
50.3854511118077
13.034027667209
13.6824762136999
50.6532253986588
56.7562998507575
14.6415981691341
14.6876279284478
62.2499714300574
82.6834028948474
22.4020385530914
18.8694056144163
70.3244463345386
58.365292498153
14.8727110447597
13.803760683969
52.6305491026661
43.3352872182787
11.5377301459468
10.4217303959322
39.1426796906294
36.6858363912042
10.116280960549
8.09202463895378
30.7338725782176
28.8062518240378
7.87200450339578
7.32122698598679
26.6742937527068
22.8752356280286
5.95889240889207
7.55187104253945
24.9937217537692
18.2468022563137
4.85811722989961
3.35675543363827
14.940893111475
13.0727949734227
1.9676188421198
1.03819398068488
1.01054840164581
13.8826513739886
13.1540360304078
11.9403489341347
12.034899382267
1.00269349849113
1.00926911942477
1.00318890567777
1.00106480494552
1.00255001063369
1.00907582647421
1.01100313509552
1.3277790351879
1.4077554954937
2.08352145318177
12.6802550485518
12.5438237537709
1.75959820075119
1.00575808486426
1.00167188665222
11.8498111850255
11.8081078003872
13.2079065170244
13.9064488137735
1.00444319480496
1.01019597362857
1.00066040836223
1.00040833747525
1.00011512947285
1.00023792975956
1.00081502012782
1.00027090775906
1.00054100984643
1.00303230151547
1.0011775160348
1.00027393751278
1.00023518359775
1.00037411679358
1.00000211985465
0.99998481772897
0.999951088423778
1.00007081218717
1.0003102997668
0.999978379171476
1.00053524332449
1.00276637351716
1.04113175369577
1.01984965133614
1.00251424618378
1.00524222713048
1.02126866334147
1.01453333826392
1.02593790275258
1.03548072898718
1.05546421298977
1.0460453575205
1.10933394574538
1.14440313878999
1.18456803586121
1.14811034885136
1.21216647190203
1.25336110042225
1.26521802486193
1.22251636426543
1.37255419557593
1.45928369165958
1.47979345471473
1.39043801986917
1.85776379500137
2.23089223188687
2.31667218244416
2.03552957853759
4.89586239116926
5.45487498011843
5.41751271778771
4.88539108020304
13.7996236878536
13.4320460844553
14.0466088518942
15.5641898078538
14.5327954913364
13.1708019286667
18.8549650894696
79.4369185056101
96.16603649908
22.1066591082218
22.7088397049209
99.0585921381958
83.4186794553927
19.6352570155492
15.1438219998119
68.1668184669063
65.3035303585831
14.719167948214
6.546117255827
4.01926203409444
3.27952988784231
3.75026849839709
3.58318821911718
5.08921419825052
5.05179014317097
6.73729766067363
32.6432794901529
32.1801163847671
6.70296535690901
6.66361969351474
32.3679096255167
33.0281211055663
6.82286125349604
6.77931189854839
32.342959354386
31.9360752600972
6.69473054371332
7.2505990880008
26.4657051737146
19.2185736394798
4.84097934426827
3.3058313318816
15.2447388713258
14.8132102435322
2.54368907249302
3.52961853091939
15.7617804045794
13.4309524700408
2.17776287538753
2.02057077345066
13.7560677656673
13.9444158624161
14.9598405345873
1.00388388218407
1.0115735609364
1.00083357861673
1.00025769025828
1.0000921438276
1.00021598429028
1.00017921093723
1.0000921802213
1.00009052311555
1.0002259589066
1.00034602938277
1.00008035570477
1.00000733697187
1.00030860960906
1.00009502971019
1.00003142731316
0.999942041057248
0.999941473781834
0.99993725286479
0.99991863493485
1.00008702338724
1.00040140915903
1.00360364872804
1.00134030097892
1.00060360530395
1.00095232605979
1.00864725985481
1.00494330821109
1.0197056207781
1.02872335062907
1.03843392912374
1.02897626200444
1.04788222104303
1.05463415769145
1.04674759056071
1.0408970769072
1.06532822821224
1.07180209407818
1.08220595331446
1.07150954802738
1.10402863594589
1.11613230082672
1.13750518768939
1.12277377510417
1.22867766680885
1.2703211983159
1.29876120467272
1.25687551921282
1.28366018396411
1.3263167023074
1.35759465732331
1.31463541194469
1.52307951853043
1.63807161250884
1.66356215527078
1.55261201476077
1.88858763603234
2.20633469452884
2.20101308284419
1.92114780560918
2.11899612990073
2.34560328921618
5.47665465998152
4.99122277083988
4.96006357162102
5.43901796924143
5.8935745288452
5.56504260177312
14.9407444479747
13.3719656415629
15.3076268003902
17.2740253822231
28.6669162936305
22.3270646858745
93.6205939824778
113.254988635176
137.088981276236
105.478854184778
22.2091994940629
31.2995697204864
18.0811483909734
18.4198947887265
18.433202453562
18.1367668587346
30.7282058792351
22.6659213621246
111.622239568232
143.454477165955
121.123092147755
27.6988050927706
22.0320763938548
106.351843382789
96.0487192783647
21.6243147598469
22.003034653506
97.0514663773926
94.0308466324302
20.5574834720537
20.6692719076234
91.2599251831483
87.0488714090003
20.6569473490938
17.5933062811699
84.4956571824325
77.1019145950798
16.527504546354
18.2649685063257
65.3915990988418
54.6499864532832
16.676917891717
11.1555840737145
39.7623757873849
34.9479460500811
9.31575198577791
8.35166466579741
32.3667975790139
30.2548687540179
8.26460451271153
8.25389819951105
29.1212637603251
27.4230417706502
8.13453608677404
8.13002359366265
31.465738895505
40.5448091897102
8.69515637572673
8.3695391791219
37.4932118750269
40.9016741118516
8.34617160011461
6.83185373002835
36.6659020768001
36.0411257754298
6.78330567829483
6.77689972346848
35.8800517589843
36.4695434139071
6.8116097669821
6.89187130884709
37.5487234564467
34.3164233595653
7.62741696508889
9.92770703523653
33.4947548450535
28.0937232649455
6.47311379850022
6.34153086941893
27.2414513036683
23.3247316244322
6.29361259967062
4.77235084698718
18.8791703235003
17.6166109390876
3.72842657241606
3.22606951196659
15.6485538986099
13.4120554604305
1.77134817216012
1.41440938700113
12.5006160165189
12.8236214908156
13.6192668933583
1.00347111872412
1.00924365370405
1.00797622373576
1.00297321875227
13.6044794366832
12.8124969027318
12.4972938702197
1.42104535954645
2.02120469807747
13.7715738985487
13.932913211941
14.9140124191311
1.00339057650813
1.01192701763239
1.00125239074231
1.00031760174679
1.00022726427771
1.00053601345402
1.00029894121509
1.00010940100612
1.00008576737498
1.00033681002456
1.00060337129743
1.00009430239644
1.00006959991754
1.00212427142678
1.0178988674273
1.00177122928939
1.00075003130896
1.0001847505579
1.00429316337221
1.014646497756
1.03656875014421
1.0130112409036
1.29171397308643
1.37531535981174
1.07450234082363
1.04165313466135
1.09480437804445
1.13571847667392
1.16530483037633
1.12099015806139
1.16233359787153
1.2081238320776
1.07013821222895
1.05896384727482
1.08873613153006
1.10054179277807
1.08154511661152
1.07375776911688
1.10677129462177
1.11633170617004
1.10615216512368
1.09845367624399
1.11577015764479
1.12627047479877
1.13677066091078
1.12253978106146
1.1476517747402
1.16241429838766
1.16249151027121
1.14757277563948
1.17553759111605
1.19147131849607
1.22606157111488
1.2088559251538
1.24699731734806
1.26744373066685
1.39278890245161
1.34956289881066
1.38317151510411
1.43175957811564
1.68835159412041
1.58385403268181
1.61910865700599
1.71845445837754
2.20493499622372
1.95840597985885
2.27168218422696
2.39616964572451
5.53549828740406
5.13423031909575
5.81638237756455
5.92902053605803
8.64760720320417
8.52597141057361
8.5967823251072
8.63331658807045
16.4801816082587
16.240923540427
15.7135596571148
15.2247026295693
21.5686044222531
98.3078299106665
110.435155230157
26.428403497874
26.1757090098256
112.895826507078
98.358301640648
21.4223125541822
20.4140156179486
93.2641878163828
92.1421402874177
20.7238763542049
20.4135078689514
94.7354670204336
94.1477711047844
20.6698374943397
17.4699677795909
73.9830843376871
71.8124886492645
17.3339188220879
17.1211437673369
58.7252710115396
50.1913151218706
15.0252113079604
14.3025349327841
44.1337749177231
34.9118859527733
10.2538952662959
8.48496253601286
31.5332845515266
33.8495425801202
8.25305553561726
8.18282961913245
33.0287597512826
32.3938300405443
8.15739460820529
8.67109628003596
41.2778140937728
40.9342356900548
8.33363368294368
8.3441202838549
41.0484763253592
41.9803175532974
8.3868368418636
8.46337725811757
43.5359631702625
45.4930726976576
8.68377716012914
8.09993001671929
40.4503097986024
40.4159908293138
9.79255332695978
11.4735178939544
47.7747506228123
50.5829454238795
11.5676438654248
10.6766209301947
39.6698433676752
29.8997452979183
7.20533649712771
6.11485752369499
24.6101944045215
21.9957939586444
4.59391948441127
4.4661875436654
20.6590147063534
19.1420939837426
4.15000538019207
2.52966101224002
15.5314399737435
14.3688373054842
2.07562112814149
2.2824735010566
14.5219562870432
13.4059994746995
1.7620535461813
3.21134633601887
15.665719099921
16.2725392728765
4.00748757007397
2.76518309130758
15.2036090334731
15.2732526617566
3.30452231261466
2.07517863556759
12.7257498032021
11.9335937644464
11.9846806126338
1.00186588274362
1.00781038798389
1.00207884962647
1.00041471863784
1.00145574975321
1.00839418139408
1.03932177113277
13.1930632298885
13.8435919475017
1.01381792978911
1.10447349257811
14.3406538569767
14.1245115603615
1.11384792950389
2.40040987175906
14.5973919401662
16.0448211117992
2.33212609315756
1.80921075809733
17.6605103858185
20.460921144218
18.9785964131363
3.72595852390064
3.30442258531472
5.48067758097346
5.06281238309064
23.3117709635492
26.373651690468
29.4749630356365
25.7990192350252
5.09878400259879
5.1667172415432
3.29685009994704
3.76700679409885
3.75921509232675
3.28897952629872
1.2961541145355
1.38422397636879
1.39485411027589
1.3026439205449
2.29235184430903
2.48258860969858
2.7318010872307
2.39340686566066
2.63071071339335
2.96339077412054
1.53095519878531
1.43085783786877
1.61577450839961
1.66348743331808
1.25968466766596
1.21718591763384
1.29710040089356
1.32808214014173
1.1350852871779
1.12189461484798
1.20860408960988
1.21691559916083
1.17156976594591
1.16026942257255
1.11518417381467
1.12629901477386
1.16096907491437
1.15095706076985
1.14362205609601
1.15441099479707
1.1891430027964
1.17778438746999
1.17824025839983
1.19381807352175
1.23212259899185
1.21554826415878
1.25808433229694
1.27801205101798
1.33322683092926
1.30231059763425
1.28508545228139
1.31647339121845
1.37074727575826
1.33019094715354
1.4209747043076
1.47587773306162
1.49298484758648
1.44026661602162
1.47040861304318
1.52280004154195
1.74197037393592
1.65234786088718
1.67063614895231
1.75578989865255
2.18764886144731
1.98282373279993
2.02742689229081
2.23420203029017
2.41734738706367
2.29211671675391
2.36119792414357
2.4219372424236
2.4222071727315
2.65176101302058
2.28563804441529
2.39755652357094
2.39669224691008
2.27086612561614
1.98103643851895
2.20642211747757
2.18383321567193
1.9624717487473
1.63899210144997
1.72989294721453
1.72329599599363
1.63213051463446
1.7408166800284
1.783505309388
1.81048437556636
1.81084296075295
1.81636574133297
1.74525923241711
1.74037149762293
1.73749638044492
1.73217471256491
1.80446610685326
1.81509521779322
2.10040950441652
2.05935046555255
1.92755179507219
1.8365664435015
1.84873559666629
1.79503714023433
1.72281349247858
4.21263156692338
19.6867483425717
17.5848281666027
2.87609616898205
2.65317077626243
16.6705144840615
17.7739137670288
3.16564121451643
3.10177316125206
16.2364879217514
20.8885534668211
5.54746084728098
4.08526825030629
17.9327514370764
20.2404780004999
5.34925206677509
3.98547963695236
19.4065931913797
19.1073600449103
4.72769930190945
4.91647643112387
18.5196925709132
20.3521100276032
5.4298242602876
8.31381633835941
26.0332358974996
27.3471732177732
8.93465853183558
7.5822033400725
27.5643690684873
29.8356961088273
8.18658830198564
6.67992697886112
5.91714843491248
29.3780326667198
29.6871852849656
26.8566025057176
5.42632319571678
5.19957682977321
27.8431958469537
35.6876136988576
35.1727613039083
7.88683409628965
8.58836573026406
3.67397444029536
3.1412148828318
4.40833327376531
5.05623811968048
1.98753210308155
1.9332103312568
1.9720604501754
2.02629603550118
1.37612397712804
1.34247263440823
1.32113990727725
1.35502472292137
1.35995987127765
1.32513938094825
1.37358743196975
1.41071958775946
1.26244937147022
1.24341826003755
1.24671057702154
1.2604736185413
1.21100604551181
1.19516639279693
1.19133288380948
1.20851552669727
1.20037416276258
1.18863145689729
1.23556317722577
1.24826740926177
1.23193516751054
1.21932567446425
1.26792062772063
1.28385431336047
1.34603779218375
1.31749603466115
1.37480062733353
1.41464374123211
1.39256816119966
1.35233291359702
1.3756022458159
1.414109826443
1.44714371228742
1.41066185021647
1.39263145578781
1.42632922097914
1.42031206264193
1.38428487795484
1.46793740035007
1.51801775978088
1.54839647635464
1.49767159925101
1.50388079948502
1.55524656457038
1.76529064823087
1.67764458338992
1.70467945025986
1.78488007382361
2.19861175908397
2.00903622172767
2.07287048785974
2.26676082753404
2.45113958633535
2.32466996445048
2.5479972013747
2.54498349125031
3.92990387969046
4.13384073641427
4.17638199203362
3.95529918912897
5.89850062654249
5.82114815904983
5.85029837855834
5.89924307408308
8.56221366791343
8.58165807397441
8.63524057231174
8.57664255684858
14.8430215693401
15.5039090310902
15.4354315105993
14.7641212068249
21.5076853905808
101.513244193701
117.401065590821
26.1517366142248
26.246274338095
123.437018326714
106.270305678399
21.699028642648
20.3974997738257
102.06916095376
96.8968804032671
20.3429801508508
20.6802260065513
104.008030587551
104.404005637986
20.7888242026707
20.7282936496618
98.7678985601737
79.8745930646263
19.7593122356355
20.6014646610621
71.3364293762386
63.245127212758
17.3023656360881
10.594877824343
7.54888428739546
6.20184699843419
5.76200396000615
13.1436317905391
43.3333602883478
36.200824253863
9.47644229770339
8.85550813515195
44.5508927580641
42.8711167259872
8.66812670910699
8.65742219882485
41.7639394270042
7.60600757445861
5.38970248039161
5.57533260311305
2.52643116528603
2.64656706406582
4.16069216713773
5.1064799112313
9.63020204870497
40.3057805684026
42.4446310442013
11.0244293121554
10.2798295280751
35.4944062036912
25.3377049080244
6.04254505148976
5.04853173079789
23.1097406757752
25.9290369418829
6.61969980375756
4.80128154452545
20.8877033623006
18.6575785253161
3.4344683661436
6.36480721210028
26.2697037056585
24.7672500736364
6.00456131429045
9.07333531446832
32.7478170811149
42.4668616010751
9.55641794526618
9.5919321340219
38.5014523527793
33.4325455670301
6.75755108134084
6.60979880057614
31.1274229892976
26.0396437767345
7.07458032913966
7.55712599013131
25.4633178690569
23.7326767252122
6.13889301327318
7.922644558145
28.6101975666569
32.2169709726451
10.6041016884592
11.0714105659056
35.1013422597692
35.4543264165187
10.316876865504
11.8067464740343
44.9234924507081
43.2627619109166
44.1088078060593
9.26799745117996
10.1104775939195
12.4855723242334
12.5572692843702
56.6006503896728
51.061474952961
54.2125708842193
13.5931265874896
14.7625897267436
60.5149067825746
60.7838793155817
74.1751500781979
17.5491110878119
15.8474601857752
12.7076067274347
12.5911661109524
11.6145510294556
12.2248783482854
5.09557578965622
4.48859815817407
4.49824522244494
5.0874082680615
2.16567128589243
2.0693917961651
2.12870831292406
2.21999819775292
2.07381163161286
2.02651941696062
1.38084503799567
1.41370854627194
1.46364364658073
1.43068271034171
1.49337417015707
1.52880198384062
1.47208413480192
1.43453431436526
1.29979510934416
1.3202359262134
1.31682390254199
1.30148040066335
1.24639110903659
1.26382722406468
1.2580208892833
1.23917311370452
1.29494720113887
1.31831465666685
1.30583153836102
1.28958694131621
1.3459345798308
1.37488876404404
1.4524385088601
1.41045861918476
1.443051359098
1.48241767738609
1.52821264564311
1.49031601077008
1.4557948692811
1.48717691716935
1.4829838954869
1.44891221396253
1.42487528574181
1.45951684508833
1.50156454656801
1.46708976372451
1.4481751499676
1.4844358393581
1.46312838858947
1.42878585003356
1.41792446293288
1.45263286108947
1.48500008283841
1.44928039021268
1.5248587301972
1.57705727580601
1.58737517677731
1.53461134132863
1.70014536418576
1.78832340714473
1.81539130285516
1.73515933748853
2.0294417805553
2.2127275285515
2.3021073209756
2.11117843280451
2.35908757127551
2.4899462720088
2.57848532402356
2.59339561976236
2.64043778885934
2.6165636603142
4.52455442260349
4.7362704408462
4.69163160503159
4.45902953765375
4.75037170642073
4.99847913981457
4.92142791864607
4.64483047648841
5.93599731365135
5.90139363389615
5.96874128268132
6.00530164812076
8.69201163607178
8.74374822520121
8.88871916151684
8.85623843608056
14.7774612383295
15.4459234378661
15.5134210520601
14.8399132689732
21.9523386951101
111.891986003874
130.411574855051
26.411333014467
26.6446947244216
22.269277210665
118.343492180507
138.522431856892
147.742529306142
26.9289355846927
22.6521732747838
125.398482126256
121.461304624752
20.8954506399487
20.6654320544462
114.627655274391
108.114078156923
20.5021450661928
21.9683258337104
118.493835036465
117.865349552899
20.946096078722
20.8430866359713
110.832671837056
107.587879393854
26.2200764630487
25.1106336376371
94.1827053868456
92.1555863604864
26.5647192283019
22.347076502723
71.4832596335478
65.9407707820792
20.695871092078
17.5069727208757
58.3820490460055
56.4695414889321
13.494495752803
11.4882816761143
48.9818673189776
7.7302514275914
5.35704437966077
5.74389556764194
3.19062023620099
3.06372499992135
3.28807569167595
2.03381321685387
2.66726378381041
3.62062726470603
6.39457269736263
24.725261745728
26.7268988955924
7.4916160413246
7.96048774381272
31.8113764166313
41.2823584096547
11.692556523582
9.72374489698785
36.9610145915705
33.2208713264156
9.78033089776747
9.04618440914341
30.4645077877369
36.0812806234057
9.10837733111124
9.56326179037671
46.734526766797
44.5086347013271
9.34158589540743
9.37813330885154
43.0993580191261
42.4702618581162
9.28614826711759
9.20797767596144
42.6347609958163
36.1200926134837
6.78633767562071
8.26686656496232
40.1718783453048
40.1309565367563
8.23091334298047
8.23726878303472
36.7837831713076
40.0310578636134
8.51316870297776
8.22888177222689
31.2174566290039
29.041577570526
8.44087088971621
9.49126796533839
33.3469356934303
41.4513966470091
13.9267243788395
14.692243121568
46.0160965120351
54.4725213698308
13.8046616577731
15.9728023940095
60.4028048267222
66.5098355599371
16.258346764225
16.1614231888712
67.7221662008087
61.7107634585639
14.6415360129902
15.6248694528382
16.9693344867293
81.7720548780926
63.935285128246
61.7624473513431
78.5280021057633
16.7196733260553
15.5058521381754
11.0965044908038
10.9864217761443
4.76756515183255
5.35874514881381
5.14619973681228
4.64258745250928
2.19949361446038
2.28837158219597
2.12247167431244
2.07843038819985
2.13940430029445
2.18292790434247
2.25818888692865
2.21200852911698
1.57006944277383
1.61062073560053
1.54667954079572
1.50540353361672
1.36837158050951
1.39399819830179
1.38813218375819
1.36783605792982
1.30763202569484
1.32949132287287
1.41287441415001
1.37723338573878
1.35626616059157
1.39240795283435
1.48548771878672
1.43386172973607
1.47742841870613
1.52783625144259
1.59593066805829
1.55377135579648
1.51455156682323
1.54393279876632
1.61742370102985
1.58653871365148
1.55188894794601
1.59478426089091
1.53610496322446
1.50532302786261
1.49375229901984
1.53037089319121
1.57994379451035
1.54026668845806
1.50720944755965
1.54348483816155
1.52161942118613
1.48345700221454
1.46150583785953
1.49810806040283
1.5308190144807
1.49156609839644
1.47848423593099
1.5164729124345
1.60363779125063
1.54995773684279
1.5631833434278
1.61922147122187
1.81060854691191
1.72097352133237
1.76339285867342
1.84590629017959
2.22836998986047
2.04801742147776
2.14720882134678
2.33862398786823
2.53311888399687
2.39542248290056
2.4329199207051
2.57648045154036
2.65422759054613
2.68252344936392
2.7278702046213
2.69422676040951
2.73392366971895
2.77078637280676
2.81885949588906
2.77674999426445
4.87079943235927
5.15792185488386
5.07705061580256
4.76325683929143
4.97724002466216
5.28929677468665
5.20803637613256
4.87192213693129
6.09873017185873
6.03967853860695
6.10071287482108
6.2065042880316
9.05091140488929
9.06238501533015
9.25617907626823
9.27860194112852
14.9491043971769
15.6341769769222
15.8048722373789
15.110329456088
15.3233996757576
16.0204169559557
27.2668442320376
158.235230851501
133.096882773499
23.099197110595
21.1701012909242
128.572162287751
145.037246608023
22.5108294812082
21.6295163407616
141.338326861756
132.810864131736
21.2893881822689
21.0925197001142
125.018652625236
120.586905707891
25.2110712580819
25.6681235855857
113.833340762709
138.610506231296
30.7071213794032
31.731086886329
130.219665716167
132.07325357012
32.1425533161601
32.4347346236137
119.000006690402
133.118626200656
31.5448939443552
28.4182661960434
25.0334138134562
27.0312568074214
109.661758906609
104.817708874017
26.9094780171297
26.3636228368693
97.492735204327
94.2026569942474
24.880954815765
24.4651712847625
97.2578096781026
101.720779713853
24.6243170887405
17.9271612302675
71.4822756856322
62.3285417879212
13.8238823318862
9.46877699703542
50.5703937356727
47.8787509969545
9.02647085122821
8.35301469900369
43.4616909517852
51.6991232773547
10.7745099328814
10.7206057407039
52.9115807178878
50.7315481369835
11.4947466277547
11.7737347573966
52.6270475955845
55.1840186696135
11.9390435629637
11.069206077132
47.3699101887079
56.0688784379144
16.3656158561892
13.9259681319984
48.2734395224126
39.0792130005795
11.6228898672875
8.50375081269842
32.0230867602897
29.0204592296368
7.81826103041344
7.02590875983187
27.6783665944062
29.2246466252856
7.84951214862144
8.19611837005147
34.2612450537605
46.4276914223946
11.9463678150807
18.1301897191862
66.3084327022819
54.2805814424624
15.8659537740718
12.7241047270444
47.1388670826491
41.2208445356022
11.723064035488
11.5145284529833
44.1655098660645
51.6605383751082
10.1405334133658
9.79117672454214
49.031102023678
48.9219472098623
9.99798289442675
8.02383434915267
39.8174251608365
44.5505285966999
9.7694203232891
9.12103213736963
42.6500925704294
41.0678828750955
8.66181391726081
8.39201929966114
40.1715330840652
40.8966447792678
8.68028597301545
8.48142741923146
32.7583026776055
32.0187730286958
8.73245726192011
9.9898754633003
38.1423307884682
52.3278504117864
14.0793404505726
15.4377541209817
66.9666118249359
69.0928517480485
16.238588946115
14.4745922467929
61.2390088129834
61.6824376506852
14.4948407553008
15.5932425010727
16.7211896554725
77.8328998219571
61.112316585635
61.64566287735
78.8301424208788
17.0182913681325
15.9668288976231
11.4419959385005
11.1654893994203
5.18001205788926
5.78123636088217
5.25107001403714
4.79291172097055
2.39684144029981
2.4856482115525
2.62808051514359
2.51870351987292
2.29310149650333
2.35989296197011
1.71702791237977
1.65568015597416
1.58392448182402
1.6425020091626
1.49097966544953
1.44770707246245
1.44551275536799
1.48197958762119
1.61679366950347
1.55572110079201
1.47345517541571
1.52853690548852
1.57550773328677
1.53705780016095
1.64450319729984
1.66774784063132
1.59722307965498
1.57593472289264
1.6935517945359
1.71648685809812
1.70886168289108
1.65492573247467
1.79549112056809
1.85858577554026
1.71632099070059
1.68316603199364
1.62754809517384
1.67402387804116
1.59328750933126
1.56169291239749
1.63222543313217
1.6648455659648
1.63557338356604
1.59277140458295
1.548268855754
1.58660904357324
1.55875060476241
1.51734776497997
1.55228675781439
1.59782068514056
1.56251792486235
1.52081459841159
1.50600780427732
1.54646841900031
1.62818025227077
1.57333560408969
1.59063885199506
1.6500916808045
1.83258108282802
1.74141764914481
1.79093405747133
1.87643085643917
2.24534745697447
2.06716463155564
2.18349645819668
2.3752511794086
2.41110529781623
2.21918581326174
2.47181326754354
2.62231506064203
2.66704950949546
2.5107748860041
2.55038354812231
2.71093177610981
2.75178745390461
2.58872868856669
2.86545108663238
2.818528609715
2.8627817316615
2.91698012798851
2.96606794751376
2.9045720299052
2.94777336231063
3.01879415595122
5.4035161019145
5.07851408251587
4.97039545316941
5.32018610788117
5.49800787440364
5.16942586468629
5.05177543365
5.41047715004253
6.15452310815615
6.3219953667696
6.43738929892221
6.20342776639694
9.4600525720548
9.53399331340625
9.80702870298181
9.66101392601538
9.84000508419875
10.0808068204531
15.5827315039195
16.2724944089861
27.6711850106509
170.159698557198
141.593884243569
23.5962540947047
21.4933534548026
136.104215805636
155.187828379227
22.784652329204
22.1665453746593
150.529550251344
149.632109709496
26.8573927241972
25.4889571898435
137.575215706525
128.409778157801
25.1433147404616
30.9083694822135
157.107425471955
143.124412150542
31.6787693572224
31.5709054248704
134.233502617462
102.88436210698
27.2757366657125
27.0582457683409
102.866237835654
96.1081319839329
26.0463956196198
26.2899561119122
104.332413835315
101.963657900307
24.9616050820436
24.5950227332936
107.50372621235
103.612863393543
24.4480646873972
22.226568670805
99.3048664509867
99.2620081498967
22.3306136926935
18.6044747626323
74.5468376462391
66.3277601128432
14.5065875107252
10.0582206524906
53.2632230722866
47.116344805889
9.07453603337622
8.65721946183603
44.9569360401539
6.22381227282466
9.53281354321001
9.50564382289755
11.1282582751743
55.3026784162733
58.8160612431577
12.116979413528
17.4130005656697
68.3303389237484
63.7801473360455
15.937187063242
25.3718614623526
88.3397226099427
78.1509000203188
23.4745437902087
18.0512897889681
58.5778825660149
45.8366154589905
14.3847378608229
10.0545516733215
35.4583110324474
30.5214253779288
7.91644309126023
7.25389189088293
29.1253449507141
30.4241629667043
7.97408391104332
8.41107866038562
35.6322987727471
48.7959396628957
12.0532635712655
18.7364709385086
71.8895005938206
91.4255173371439
24.4676777879931
25.8260768315357
119.810470860049
114.078091212595
25.2039080468315
25.4791162692053
110.635286822333
101.300099696052
25.0596969620463
22.8842050354325
81.8892153163775
59.6735185474629
14.4121916431719
15.2720911744796
60.5993432198575
52.9330576113606
13.5812612975173
15.3305372351094
57.2600842731851
48.3286533364127
11.4624696263243
11.8063630660039
48.8837204348231
38.5784526274554
13.4609600124022
14.5355441334869
37.3002873705703
44.4353030232022
17.2057253169993
22.0920641580075
64.6778043544553
84.238773096693
22.1305990845489
24.8315407731387
91.1245474944044
83.396332311179
24.358056192268
29.6937352225658
33.5833752793953
133.307824036884
92.1634584933767
88.7932118724681
126.651410489846
29.9589230030202
26.897467503023
18.0100584178675
17.9041518031802
13.591295711829
13.1359911348895
8.71928994384361
8.47666817879496
7.82944690486029
8.30909257637823
6.98584481828667
6.55877069384021
5.33553940262216
5.67603714080388
3.92657180383225
3.79738360000333
3.6644635005391
3.77245673924381
3.54332554170374
3.4445388500551
3.21829119410931
3.30562765091776
3.07993550782402
2.97623470531858
3.04350699195148
3.1253545211902
3.25545643044286
3.14530486219074
3.22967841106697
3.33278734895085
3.46742000823302
3.31515694336533
3.34609826190967
3.46812569294317
3.53607998433895
3.36200793272091
3.27728610258825
3.40773587381432
3.11884521028352
2.99290083727685
2.82642495281555
2.94203987129466
2.51983500625097
2.47127741235682
2.26245444893059
2.35405328004902
2.04729633426947
2.00326048136796
1.85898763705605
1.91330174192768
1.75931888763309
1.72490054091733
1.65820976581944
1.70362932642226