/*--------------------------------*- C++ -*----------------------------------*\
| =========                 |                                                 |
| \\      /  F ield         | OpenFOAM: The Open Source CFD Toolbox           |
|  \\    /   O peration     | Version:  2312                                  |
|   \\  /    A nd           | Website:  www.openfoam.com                      |
|    \\/     M anipulation  |                                                 |
\*---------------------------------------------------------------------------*/
FoamFile
{
    version     2.0;
    format      ascii;
    arch        "LSB;label=32;scalar=64";
    class       volScalarField;
    location    "1500";
    object      p;
}
// * * * * * * * * * * * * * * * * * * * * * * * * * * * * * * * * * * * * * //

dimensions      [0 2 -2 0 0 0 0];

internalField   nonuniform List<scalar> 
207032
(
83523.5969715248
83537.222512446
83558.8316582098
83536.2281832827
83522.7687561714
83512.8710863769
83500.9190015644
83492.1227003045
83496.0729066449
83507.5442647076
83507.6172002302
83503.9377842613
83504.2031524985
83512.4652668888
83512.0169923454
83520.2544318316
83521.7698147263
83520.7553681488
83521.0741997879
83531.3406027402
83539.6674073636
83544.1416076977
83531.3020153313
83522.8346902278
83523.065795637
83530.2545385969
83529.5795346316
83531.7139921464
83537.3104783268
83536.6735141502
83532.1246076988
83532.9771991886
83534.4758207963
83533.2221468233
83531.8045895095
83529.9788764375
83536.4416395561
83545.5780120226
83533.0550658897
83533.0260073742
83546.116079121
83530.8169300902
83528.3183627882
83532.9571376031
83547.9219936123
83489.955930821
83502.4989872207
83488.7090766849
83465.7959112947
83471.0726488967
83486.0761522916
83484.2351973789
83459.4525318969
83555.5245859857
83554.3680973535
83517.6696919363
83509.9096560646
83502.5262658691
83502.5372272271
83503.0743031387
83502.50403436
83501.5557192001
83503.1362785452
83497.2207410494
83496.9944497895
83491.5703349775
83490.0981399744
83472.1793812066
83488.757434359
83507.6831378537
83501.8289846063
83523.022484575
83563.3018842729
83547.4305117642
83526.6667566607
83509.9904205582
83513.8704296717
83488.7455196052
83478.5933153212
83484.5236370122
83491.2171533703
83495.7893507937
83494.6351050431
83495.396717058
83496.975018035
83497.0504203911
83496.6579429588
83497.9877750394
83497.8305251633
83499.7453113874
83499.9833283903
83498.3157508629
83498.8200242954
83501.9205154076
83502.1088926376
83508.8654269837
83507.8382144024
83516.2656056798
83515.8520471315
83524.4704702999
83525.5024497149
83533.4539362826
83532.6597270842
83540.5655599745
83541.0399055269
83535.5486453972
83534.9499670465
83541.1796731598
83541.6844306468
83536.6753812156
83535.8534297717
83533.5788182018
83536.5615252161
83535.3494493832
83533.2282348466
83523.3060527092
83532.7069012321
83533.0751961809
83537.047440005
83552.7239238463
83536.2286615557
83537.199109964
83547.0622805186
83544.3402651694
83539.4585780679
83539.2464244408
83541.3663729893
83538.5913086894
83538.2836116781
83537.2774469373
83536.6516264077
83535.9049556876
83535.6470637771
83532.1256289987
83530.8349837159
83529.4749598619
83528.3517028419
83526.995067509
83528.3266120123
83529.0087211072
83526.8319988853
83524.273762439
83531.3588662355
83515.1576424667
83519.3575220171
83518.2586449029
83507.9513590399
83548.6848293469
83512.9171400676
83505.9028173095
83501.9120427545
83498.9800601046
83496.9161023899
83490.6165341959
83488.6067162921
83477.3834920992
83487.4047029812
83499.5026051976
83506.9546160331
83524.4503071444
83503.5998205975
83494.7707950844
83510.290198724
83498.857055619
83495.4479432606
83496.8522809254
83497.987334744
83501.1519735721
83499.359880215
83492.8317757118
83490.6498262545
83492.8385526519
83492.3624652848
83492.8095404451
83491.255173973
83492.2616515664
83492.7958007603
83495.0603003996
83503.0003569576
83490.2425189576
83488.7034770864
83498.254924893
83492.7335344479
83490.5336444685
83491.0780767854
83491.7125783825
83493.1933592122
83492.8587330309
83495.197936421
83495.4059455661
83497.5464006638
83497.6341252873
83498.2078133024
83498.1321182338
83498.5526581403
83498.4709323726
83496.1365712801
83496.3166932853
83496.4519824471
83496.278452439
83496.4364700591
83496.6117952206
83496.7233642406
83496.5981498186
83496.6283295106
83496.9896087046
83498.2190727626
83498.0345238699
83503.2123801721
83503.0697366261
83511.0431752565
83511.779756074
83518.1041542634
83518.3448794827
83517.0845371915
83516.7697517595
83524.9577871581
83525.5313463403
83535.1416250468
83534.5447155582
83541.5720617114
83541.8598728575
83549.6474363874
83549.1077208105
83554.1094975851
83554.6864552755
83549.7666213212
83549.0469219871
83552.3977058771
83553.6199797144
83549.5104575258
83548.4680955255
83543.1393821225
83543.0022019593
83541.2133758072
83541.7665453207
83541.411001412
83540.9399758586
83543.7652144913
83543.7115901235
83538.6553822935
83535.2535329214
83538.7109475468
83539.7524322739
83542.5110572
83541.129856729
83538.232741635
83541.4090674069
83538.7967828207
83538.6370039019
83530.8153553641
83537.1320894864
83542.0304584093
83538.8690729818
83530.8071633436
83518.2615960412
83504.5217690667
83489.1947092215
83481.5242617752
83473.3117864546
83476.6783950423
83471.9992823453
83479.469085717
83491.8771389169
83506.2758587113
83502.2668646353
83493.0593685226
83496.6906060863
83493.5492668005
83505.4930586729
83502.9769697721
83497.3007838401
83484.3951754906
83488.7873295352
83494.1882506206
83492.7279484299
83490.9345290434
83491.3423440561
83492.0953735471
83491.8945928662
83492.3118050335
83491.3213431833
83491.5398123111
83490.3260278686
83490.7933045892
83483.9719137642
83491.6055098135
83489.421188725
83487.6570571458
83489.7336530653
83490.2014633073
83489.1017617866
83489.0839229142
83491.0674221086
83491.1023736249
83493.2035883024
83493.2667672578
83495.31485043
83495.1036495811
83493.113282062
83493.2678026364
83494.4073079008
83494.621438287
83494.4527831505
83494.2602781825
83493.1246700978
83493.169147757
83492.9016742347
83492.7869984613
83491.3787242348
83491.6703528528
83494.9027319508
83494.688064448
83496.327941987
83496.5569425903
83501.2553921746
83501.4125937376
83511.0428270235
83510.1144876532
83517.9946366141
83517.7636098224
83518.5775932783
83518.8157238681
83529.331043581
83528.9794744238
83527.4432500906
83527.797257024
83539.2714712424
83538.7334725405
83548.6134253391
83549.258539492
83546.0494061838
83545.410609086
83553.4010283095
83553.7449287174
83561.1756021984
83560.9304439422
83568.8451807193
83569.0243854744
83562.44854238
83561.8547686547
83567.2615045663
83567.6626580111
83560.3930141763
83559.7243879894
83564.5513024377
83564.4584017822
83557.182962498
83557.2860502881
83550.835274144
83551.2868898813
83546.2569148921
83545.7013783388
83548.2101834732
83548.5644244589
83545.7022260558
83545.3683575759
83546.6223308549
83546.6754490971
83544.1914751948
83543.6581213594
83541.487706056
83543.5159383886
83545.3188367783
83554.1045925001
83544.6396783793
83543.3021902304
83544.656456557
83543.4981716542
83543.7366197865
83544.8663268167
83540.2677579966
83538.0570970736
83529.2017987609
83537.6177755204
83542.6073123488
83542.9325719923
83542.0010542692
83542.3067887256
83545.431807915
83541.4475500616
83537.4262593263
83532.6596559779
83535.0779517578
83536.2797923813
83533.2406158453
83531.2025690184
83533.4152190579
83536.8594489876
83539.9013257567
83540.4261927471
83530.2752472636
83539.9666102161
83534.0546068591
83530.6061893754
83531.0609902566
83529.6888015841
83519.4654291056
83520.0113819452
83521.8879809521
83521.0066930529
83522.8364000975
83526.5387288597
83519.5018447245
83516.5369482382
83520.8621123005
83526.7180772943
83514.1135400413
83516.966224887
83515.8117802307
83521.4677854375
83523.6871701072
83514.9368129706
83514.7976729994
83529.5628250617
83515.153039994
83509.3023206718
83504.4303680876
83513.3546146733
83502.9645016778
83496.8937257482
83485.4192591739
83482.8445295465
83480.1892056205
83479.8002298843
83467.2382418184
83463.1805660528
83442.5989747038
83456.0555664468
83438.4256412674
83432.3495390297
83468.3314346903
83468.4451126744
83480.8532930212
83475.5089690927
83493.0362833944
83489.7170831824
83491.1878418046
83492.238218427
83488.7919293152
83488.3465841102
83490.8286328027
83491.8327498309
83488.9839958283
83488.8176601732
83488.6828284177
83488.3855032916
83484.3443748221
83488.1804834315
83487.4198478996
83486.8605585071
83484.9547652255
83485.2855014692
83484.8922581631
83481.5788868734
83487.1420700311
83487.2917374955
83486.1509417098
83486.7746808352
83477.1710992191
83482.2716074798
83483.1487328668
83482.3503988492
83485.2405639218
83485.4413732701
83487.1594966018
83487.1023438346
83488.9192403282
83488.9709780709
83491.0907282388
83491.1195989894
83488.6362502209
83488.9819303434
83491.7997643978
83491.5966149646
83492.9514428264
83493.3203205832
83494.3410683172
83493.6312186926
83492.9330541003
83494.3191218118
83488.8786898654
83489.1218345946
83488.2451966338
83486.5677664733
83491.4499991191
83492.0263628459
83495.895232766
83496.1558514575
83506.1666823138
83505.6199245289
83511.6864445163
83511.3396633945
83515.5969341964
83515.8328943447
83526.1615844962
83525.6494118396
83528.2731312303
83528.7026680223
83542.949684342
83542.5354373538
83542.3714208526
83542.9462884393
83556.6826275884
83556.172728364
83553.3829192222
83553.986086034
83564.286521455
83563.9332950164
83558.7103712251
83559.0172982647
83568.3327162536
83568.1330324573
83577.4401641088
83577.5281645444
83587.1284171331
83587.2065852
83576.5408001394
83576.557419499
83584.2192045641
83584.4576479736
83573.9285276216
83573.6203395763
83579.4730784406
83579.8113106905
83569.1052304554
83568.6076847663
83560.7086165009
83561.0341015936
83553.7545600515
83553.7010872807
83555.7239693779
83555.8317098987
83549.061198168
83549.3931601314
83548.8518559169
83549.0737794734
83545.6447076774
83545.7851008986
83546.8988106672
83546.2213780752
83544.3985565821
83545.8464668161
83545.1206157369
83545.1353851951
83544.5466016654
83543.8280834471
83542.8664433769
83543.2968029083
83540.8109072909
83541.3311168501
83546.2889739334
83543.0470206914
83540.3569656794
83543.3523607612
83540.482529513
83537.3283629267
83531.1306575948
83533.4892177266
83523.122978365
83529.5221715541
83523.493792987
83519.927403781
83514.9755544591
83514.5848667005
83502.2657248091
83502.9494836435
83509.6554397295
83508.8010973276
83512.2052392371
83512.8871709785
83504.6686049553
83503.7911147653
83509.0076779727
83511.5481577333
83518.2780998019
83514.2925816499
83505.0442455297
83505.1687478658
83502.9093813948
83500.1659836906
83492.8570141655
83492.889041634
83487.5131958815
83487.5051718282
83478.0441464914
83477.0494178939
83466.7581229742
83466.5660914977
83454.7613925035
83457.2003584281
83450.2544542851
83447.1141968203
83429.1538054054
83425.3798033889
83429.2270665336
83420.625286513
83407.4420109817
83408.4337131729
83384.6908101426
83385.3982374346
83428.5939690542
83428.3087709301
83458.488054112
83459.6069933351
83474.1686289857
83471.7549648143
83482.6461984839
83483.1985223779
83480.0375760695
83478.7302141952
83485.3558721463
83485.7338054228
83483.5635186943
83483.0797681367
83487.8882392577
83487.2390655035
83486.035526524
83487.1993803685
83483.6400634071
83484.357670408
83483.2813150591
83480.4966754836
83479.68602983
83482.9319723004
83482.8740987526
83481.1727849349
83481.0120050911
83490.4434569609
83486.6457897449
83484.6059496245
83487.5735755112
83488.5468224713
83490.7393461627
83489.0160822077
83487.1651866983
83487.9669455969
83502.4223631347
83492.8429544706
83504.0959846311
83533.2087748554
83538.543476925
83497.7587064621
83473.7319270249
83447.5047415239
83460.9120620788
83478.3160257265
83482.1033520575
83478.663621945
83475.4011111919
83468.6753882144
83479.6204878814
83482.9051343845
83484.8252415243
83480.9944936587
83463.8822948204
83476.8630413018
83476.7033499454
83461.2497710659
83485.8578836122
83486.7489448771
83488.2652442497
83487.086341164
83485.7807625839
83487.6733745315
83488.6225367566
83486.027467065
83490.0298308554
83490.9608408858
83490.5291915791
83490.2931828523
83494.0985659721
83494.4298165919
83501.0018422897
83500.1108116048
83506.9653920577
83507.4803260841
83515.9639379748
83514.9861106508
83519.8551765208
83520.610945777
83531.9933290182
83531.2357843564
83539.4568503932
83539.8351367548
83560.6005059218
83560.7108901954
83564.7370765333
83564.7131075791
83558.8445507431
83558.5222239149
83571.4716325888
83572.0339715864
83568.5327574326
83568.2292796378
83580.911426962
83581.0163414467
83575.0043516835
83574.7930874395
83586.219972477
83586.2286442955
83598.0768315591
83598.4443470993
83611.0463768901
83610.2627863493
83596.8524000676
83597.2455594562
83606.5028995216
83606.2271022337
83591.4155816917
83591.6085477529
83592.2281307239
83591.7278499292
83593.5690017323
83593.652677786
83586.9348286324
83586.9733574032
83580.7820221433
83580.8473780599
83575.1218157875
83575.1129582939
83570.2780707791
83570.3633346678
83566.4326942642
83566.3438533463
83562.639229035
83562.7096993478
83559.657844055
83559.3725219274
83559.7720332402
83560.4416304219
83566.7578053914
83566.2203087564
83569.0845247153
83569.6763784531
83575.5036969514
83574.9953260601
83579.5079976296
83580.0572433454
83587.5284338927
83587.2457339134
83587.2531260265
83584.2549320594
83591.0222382323
83591.3292114674
83589.5807685125
83588.6432438316
83588.0458630942
83586.7651007129
83582.2324902287
83570.0260526882
83556.5056174897
83532.3030161023
83522.2227473694
83494.3373927831
83463.4490124037
83449.570719323
83428.197146217
83421.960351625
83413.8559846881
83414.0007945602
83448.5455238187
83450.8916658748
83470.0356685616
83467.4497599873
83463.3098916373
83465.7143601195
83477.0502973534
83475.6595251658
83474.879474891
83475.4335442539
83481.7544834585
83481.6521490805
83481.2083705368
83480.8088111714
83481.2745549764
83476.3593067975
83475.4723192184
83481.8600090106
83484.1984501856
83485.1703106716
83451.7161129852
83476.476221397
83488.8816264976
83473.9939651013
83462.5959120751
83491.7907336517
83498.753728192
83483.7928237076
83521.0480281568
83507.1997958098
83504.8604493611
83506.4951287351
83505.0846908647
83505.6961424997
83476.6304617762
83493.9974998622
83494.7868670242
83483.5632844145
83528.8063945451
83523.0285101434
83514.9643203171
83514.4443835261
83508.5763409056
83509.2843768201
83513.2714514151
83512.3972200819
83523.2760640978
83523.8733747311
83533.5010747838
83533.2731667875
83539.124337333
83539.3358366325
83548.4099066752
83548.011683081
83557.4368274383
83557.5032540919
83570.534846144
83570.7521049026
83581.4972715783
83581.4035053619
83588.0750681064
83588.0115925918
83589.934281403
83590.2018544744
83590.426422652
83589.9232432575
83585.6751372484
83585.965147135
83602.3621137396
83602.482463398
83595.119859528
83594.9505233723
83609.7098137187
83610.3021755751
83625.9237756395
83624.8179014683
83639.6554382244
83640.1934523915
83622.4144014864
83622.0345034679
83623.012349343
83623.3895625692
83626.154900499
83626.1559281646
83616.6310405044
83616.5793301047
83608.6547347257
83608.6440696678
83600.1616942048
83600.1577700262
83602.2506079247
83602.2658470418
83595.7990064402
83595.8381683948
83588.0411860149
83588.1920154438
83582.3577162882
83582.3420003102
83575.949202873
83576.151370611
83571.5050676355
83571.4313640888
83566.912768553
83567.0650402932
83563.6102744619
83563.6466224466
83561.4601529484
83560.9696431716
83559.8633308025
83560.3121316455
83554.7423346191
83554.573073826
83554.7409341898
83554.6914354435
83549.9336929861
83550.2587994495
83550.878127423
83550.5652058242
83546.3066742127
83547.101789437
83545.9450442616
83545.1060177897
83541.621476608
83540.3564497888
83541.9810122689
83543.0244961383
83541.8058891558
83540.8075894225
83539.2815556281
83540.5296990779
83537.7069856121
83536.8767363504
83537.8984118783
83538.5932307701
83534.6304823559
83533.8515159544
83529.8338230675
83530.5813878664
83533.2402387398
83533.6339904325
83524.8762696306
83526.6246559145
83517.6113693339
83508.9411691249
83525.380665874
83524.0481443783
83528.6547445229
83522.0960308508
83506.4697282219
83491.1102059763
83490.4127365715
83490.6035990609
83499.7928330778
83498.5938468757
83486.6713327539
83486.8293913097
83494.8641480723
83494.3418652133
83499.4316625308
83499.8604905274
83499.4473333776
83496.0842416323
83489.1923779398
83485.6039998235
83456.9863297573
83438.9775348393
83393.1421334791
83390.8516968991
83402.4904758054
83356.7048986387
83353.9956571742
83331.9482298055
83328.0900311074
83324.4388998675
83329.1549277998
83360.9676888846
83356.0136304965
83338.644200286
83342.9376070882
83400.5856146845
83401.7788317121
83440.4644583825
83441.8412527229
83433.0200736287
83431.0792721717
83466.7057735798
83465.0436012431
83470.5296714648
83469.9526476862
83487.1656083354
83475.0857964438
83476.0138708357
83477.2263669064
83487.7220964527
83479.929618803
83482.8110309668
83483.852521546
83466.9736906326
83480.9905872786
83487.3808390665
83481.9221771625
83526.4423546797
83496.5039071872
83500.4049768659
83493.1796233694
83532.4999957597
83517.2551010034
83523.7031106111
83550.2986081412
83544.4629944301
83520.0444768357
83512.6160428881
83524.7247428488
83516.1981425639
83515.9857971563
83512.1401610206
83511.6965598387
83505.8793914096
83506.6805511585
83506.4602101579
83505.0987033401
83507.5552029917
83504.1953514242
83500.119298985
83501.7893978355
83503.4309321828
83503.6416292156
83502.7617553358
83502.4116422866
83503.3761664758
83504.2453888836
83506.7131298527
83505.6258040001
83507.7214702989
83508.5156781656
83518.4946198367
83517.9152210594
83525.547598091
83526.0520217774
83528.8845063548
83528.6732231384
83538.4778570631
83538.6302334388
83548.6347200301
83548.6315589472
83558.8293615053
83558.5279315894
83569.2716540405
83569.8908989694
83585.4491196991
83584.8558781466
83599.5080530515
83599.8336641324
83607.8084302623
83607.703507346
83610.678262235
83610.6531123408
83609.2788719382
83609.3660269001
83628.5203957661
83629.78277465
83620.5345406236
83619.5566179264
83637.5550593153
83639.3234103633
83656.5383575934
83655.5004587906
83659.927637612
83660.4976785533
83665.1600828814
83665.164050434
83654.2108161877
83654.1475491606
83645.1398833294
83645.1158122325
83634.3879253012
83634.2546508291
83636.9681496176
83636.8093774932
83628.9244764745
83629.1819127942
83618.6133797181
83618.5534937361
83611.1872781879
83611.292753318
83611.6827394841
83611.5436971799
83603.151222759
83603.1038643058
83596.5325557191
83596.5431680268
83589.2671350013
83589.1525592961
83583.2789738425
83583.307620218
83577.2149473891
83577.0503531542
83572.1483651126
83572.2633729865
83567.6166414535
83567.4278105145
83563.6018314341
83563.4183338865
83563.6697873329
83563.7370049023
83560.9431539647
83560.5814219236
83559.8750063043
83560.0208286641
83560.7348855201
83560.4511198456
83559.6435569208
83559.722538695
83554.8474831707
83554.8617064621
83553.7985264176
83553.8649080351
83549.5355536256
83549.8740756244
83548.426790718
83548.1355825879
83543.7774008997
83544.5619409709
83543.0775847936
83542.3181133604
83539.3508805773
83538.3287364263
83539.6637940428
83540.5468546537
83538.5558102383
83537.3327345124
83536.4755244293
83537.7575355646
83534.83287129
83535.6305055246
83534.3334481978
83533.4791403235
83531.1459479363
83531.4165894176
83534.5993022002
83534.3786811644
83536.2669298254
83536.7164609544
83533.0422160241
83533.0984256175
83531.5100348672
83530.7477523381
83530.9205754577
83530.4892173654
83525.2260117802
83525.6276217641
83525.2934132759
83524.138265748
83518.1087694242
83520.4787567792
83506.5280017597
83495.467842244
83488.4377608178
83494.1889387979
83479.5071780238
83478.6085866145
83462.3253001967
83462.7031950316
83476.4067736657
83476.7302379373
83474.0849016718
83467.7228864543
83453.6911468561
83445.7775992538
83440.3634381938
83411.0952432878
83390.1271461434
83358.4156026193
83308.5301041835
83318.4552123221
83326.1944891721
83321.5460887496
83312.2679516924
83301.8333913633
83303.322381327
83287.8782501252
83292.2348728134
83312.6739799453
83314.932357687
83348.3770137992
83341.8856255441
83380.4806673451
83374.9989041616
83382.748027272
83388.8513129277
83386.2459167138
83382.9354379321
83417.1587841604
83415.9886111336
83435.2444802744
83431.3967461921
83461.3264502612
83458.4524817054
83458.1109209187
83460.1247548741
83465.5773072165
83461.6607031028
83463.0325080105
83464.9386083792
83485.0617090342
83479.8027788086
83488.3944493095
83498.926956076
83492.343998047
83485.4691661171
83487.3636273856
83489.8712709924
83487.2868641234
83490.73196165
83494.7447172178
83490.9219438228
83513.6543218008
83505.3046140807
83513.7685686715
83531.8681843906
83507.8254566952
83504.7777528766
83500.227747814
83509.5175471975
83502.0707665357
83497.6416966531
83490.2180834461
83488.0990053023
83495.0251671805
83494.2632589467
83497.4797448943
83498.3597856089
83497.866523247
83497.3371255607
83489.8059451313
83490.8741277598
83493.1793269902
83492.0135874279
83499.0189835087
83499.9487173476
83508.0517064384
83507.5482291573
83518.3264068456
83518.900693585
83531.6970746378
83531.5617629326
83544.7092124863
83544.7209759756
83551.2064064321
83551.3391931488
83557.4326505879
83556.9737820133
83580.309719579
83581.4424362119
83601.3956813536
83599.9057292846
83618.0253281607
83619.7406756723
83629.4650702584
83627.7558891871
83631.0840895623
83632.6052912635
83655.3429528263
83652.5167286685
83648.5591566191
83650.8965952775
83670.3696715072
83668.7842154262
83674.9526080813
83675.7033875195
83681.274015667
83681.1914573363
83672.0300837292
83671.9487993515
83674.3401884596
83673.5407890231
83667.8454565092
83668.658324038
83656.527982197
83656.1510942348
83648.2387004174
83648.702350611
83647.9319570192
83647.238494542
83636.5748603205
83636.9878344401
83629.0527589481
83628.6878262772
83619.0064691078
83619.1549610477
83617.2629633269
83617.0719279995
83609.9309122945
83610.1334335169
83602.4132599438
83602.3944566239
83595.9455478937
83596.0027694799
83589.3327013942
83589.3429657221
83583.4202731997
83583.4639357506
83577.6477537757
83577.6837828483
83572.5145163112
83572.4895754141
83567.6295480424
83567.8440573276
83567.7854613651
83567.6162958373
83563.6060036483
83563.4693241987
83563.4869945731
83563.5098977495
83563.0808490648
83562.974923346
83562.6501256935
83562.6551106362
83560.0489597046
83559.7602223886
83558.6270424693
83558.6789299328
83558.6958360503
83558.3980949635
83557.1309284955
83557.1755913156
83552.4778670676
83552.3417229125
83550.6692439694
83550.80294731
83546.5758201882
83546.8752079909
83544.893955651
83544.6327352682
83540.3429468561
83541.0539046234
83538.277752808
83537.6171289239
83533.9371747834
83534.5677900719
83531.7518834988
83530.9137301729
83529.4333260266
83530.3915376279
83527.3627952642
83526.8785940653
83522.8392835748
83522.6635926989
83519.2335016397
83519.5025526073
83523.3651220466
83523.3002201345
83527.397711495
83527.8666847702
83522.6615378086
83521.5857097229
83525.6484266375
83528.4411824891
83524.8325086727
83520.950774973
83516.2420912269
83517.5832516582
83540.2324473198
83526.7422639082
83520.5259908401
83511.0453180103
83532.1623200888
83524.5310376647
83521.2049960826
83515.3414442861
83520.3964726385
83528.1952134109
83516.0423830308
83517.1420401109
83509.6566313105
83518.5033060956
83506.3479378283
83500.3636083601
83485.9984054478
83484.7292096081
83483.1765962846
83479.2724693844
83465.9979436303
83462.8408124166
83446.4845762776
83447.2153633286
83435.9203890962
83436.1208209473
83450.5228386382
83451.7947587682
83436.6907590607
83432.1167083128
83433.1339112957
83427.108815079
83406.9704883009
83410.9740362398
83406.105020525
83400.4241318947
83369.0640501651
83367.3612761028
83346.3473233874
83346.0109864869
83332.998712906
83328.5168160207
83303.4068331962
83310.1092691513
83308.4923657978
83307.2873868694
83325.4767086037
83302.8970191414
83295.2992940851
83308.1099728647
83324.4262692557
83309.9794343588
83300.900187169
83311.012186071
83301.9362637249
83293.50353141
83288.7361920224
83300.1784085384
83291.592170845
83281.6182298188
83273.1202172725
83279.2413725306
83291.7906606741
83286.0632130034
83312.7238572026
83322.3312746983
83320.7810213487
83329.884717958
83326.9138616276
83317.146103362
83316.0019597545
83316.8966352991
83353.922503466
83354.1531976865
83347.512334634
83347.8293837408
83341.2775435612
83340.9943642019
83334.3856603107
83334.4334198215
83380.4033720447
83379.4662378935
83414.7289733668
83415.8701867034
83442.2328837489
83441.9449029163
83444.9074185925
83445.1794220032
83452.9887854172
83453.4962125318
83459.7635815687
83459.8094263416
83468.2304690666
83469.1089270822
83474.1115370527
83473.564766397
83482.3131094725
83485.1442499444
83484.0791547219
83485.5833202493
83488.5235618166
83487.2278260382
83478.2045011469
83479.8948407913
83483.9149224456
83485.4143939896
83482.4072095164
83480.9844168033
83467.9588975268
83469.7440811581
83473.321713529
83471.5707153496
83481.9001371812
83483.019903512
83496.7294107084
83496.0087262586
83513.8367987193
83514.1062680627
83535.1277147126
83535.2352604014
83532.9613293064
83532.6847953413
83560.1722965016
83560.9277570515
83591.2996150901
83589.8986485414
83614.5747198687
83616.5794094676
83639.5435404935
83636.8545708582
83648.945056588
83651.8954316622
83672.2418641234
83670.015370178
83674.2604461589
83676.2947201406
83685.8467482485
83684.989108262
83689.5025359381
83689.9031496474
83685.7174663535
83685.4959919395
83684.4552755909
83685.9882484093
83683.9914360733
83682.6173173283
83676.3850198906
83678.2878470749
83671.4887987887
83670.0579559325
83665.4054801264
83666.5590228345
83655.8428164709
83655.0084021186
83649.2070463043
83649.984050513
83642.7556522079
83642.106818211
83632.9017721198
83633.313869514
83625.8450942708
83625.4960298464
83620.143337435
83620.5107596946
83613.4061387486
83613.1644205858
83606.9623532039
83607.1790323538
83600.5208559808
83600.4152510392
83594.5053833775
83594.5987015589
83588.5434130877
83588.516694139
83582.8699746707
83582.9108391344
83577.5004957968
83577.5122552167
83572.4364095228
83572.4077218917
83571.9786760071
83572.0298633504
83567.5357207898
83567.344097274
83566.8832965808
83567.0231108337
83566.350476081
83566.188852026
83565.3283035435
83565.4231189919
83561.806491532
83561.8907483608
83561.1601158
83561.1521971587
83560.0986154519
83560.1871541422
83559.2769895781
83559.2651605987
83556.6869042174
83556.9575299501
83555.3729023311
83555.3390996773
83554.7853548923
83555.0661247703
83553.4709888962
83553.4032018256
83548.7719063499
83549.0444874365
83546.6470521959
83546.2710728993
83542.206880477
83541.9457517014
83538.3100687434
83538.5381720845
83533.5670924134
83533.4350278951
83529.0268419299
83529.637977997
83526.7224358209
83525.8296298272
83524.1801096662
83525.3158409085
83522.1975454366
83521.3156968499
83516.9735910782
83517.1404047061
83513.516686663
83514.072862074
83512.3824821853
83508.5764877991
83514.13898357
83514.7811430123
83518.0467925501
83517.7182599508
83511.4032257855
83511.4622796068
83506.0784971147
83506.2405101125
83509.1454279548
83508.4161778699
83501.3485093186
83501.7652452383
83508.579756674
83509.3028193941
83503.8294792896
83502.2007058603
83510.3256428745
83515.4023629043
83503.5914988511
83499.7947461854
83493.1046854001
83498.8709123216
83489.838182647
83486.6953944459
83478.5144704014
83489.14141852
83466.3683786691
83468.1041538933
83452.3136803167
83455.5629246353
83431.0539958087
83429.1867284531
83414.6578047654
83416.3001081357
83399.4190009741
83396.6548018937
83420.6673870294
83423.1345802641
83415.6148798845
83402.4103975905
83372.9214863151
83379.2575646138
83381.0007941898
83356.8531571822
83354.7055510425
83330.9650414293
83334.1969058276
83324.1593315155
83323.4751494827
83306.2087380754
83302.8267345806
83307.6499931316
83301.4306043836
83298.0387224086
83306.4174527436
83288.5075040369
83284.8803309515
83279.109854593
83280.7797045628
83282.0101999335
83277.0456912905
83286.1675709205
83292.0449853874
83286.3903398378
83280.6631728527
83277.4626648768
83283.8666385239
83278.7894764208
83272.5316913556
83265.5958296366
83266.7801159526
83261.6783525439
83261.8892365767
83257.0432888585
83256.9023199323
83262.9720181227
83260.4332656743
83264.3319341772
83265.5931920701
83267.7478948748
83259.983905692
83255.5943896644
83252.1304456561
83286.8806600453
83283.4101915607
83270.1645304496
83272.4900068489
83253.3067590555
83248.813168684
83228.5147769282
83233.0467648561
83283.8983852821
83280.5416359245
83265.9094504903
83268.7812268244
83250.6960163995
83245.1198255495
83221.2167348087
83230.9852614255
83210.6896712764
83199.5394182412
83181.2764237346
83189.0485143164
83216.7062909902
83210.7683023398
83207.8563552044
83209.8101368248
83207.5103283858
83206.2846554679
83206.5097011022
83207.271872569
83207.983465486
83207.2963255211
83279.0812310435
83280.5697093871
83281.4037762779
83280.0294310932
83283.3373102888
83283.7117359032
83308.8563201849
83309.8442462878
83315.7431889716
83315.2009058931
83325.0683539283
83325.2043511274
83338.3051924158
83338.0411389699
83355.1326638421
83355.4548055006
83376.8769892939
83375.9922207109
83398.9622512472
83400.13365064
83425.5542973407
83423.9866514314
83447.2944388947
83449.0068622969
83471.7003644829
83469.7066027277
83487.5925986604
83489.6121384737
83505.7071172995
83503.6780438754
83515.2028120684
83516.9976425787
83528.0207165318
83526.5299692936
83534.5393699288
83535.5266777236
83546.5144125551
83546.0994990942
83559.2235426152
83559.2090562158
83577.8284716589
83577.8364247734
83602.4966531787
83602.9704758492
83625.2488192233
83624.2087172732
83641.4442277438
83642.6098074347
83646.6771105262
83645.5810014259
83645.2769239424
83646.1580916092
83639.8824830858
83639.1481710362
83633.6490157875
83634.2684866104
83626.7383220371