/*--------------------------------*- C++ -*----------------------------------*\
| =========                 |                                                 |
| \\      /  F ield         | OpenFOAM: The Open Source CFD Toolbox           |
|  \\    /   O peration     | Version:  2312                                  |
|   \\  /    A nd           | Website:  www.openfoam.com                      |
|    \\/     M anipulation  |                                                 |
\*---------------------------------------------------------------------------*/
FoamFile
{
    version     2.0;
    format      ascii;
    arch        "LSB;label=32;scalar=64";
    class       volScalarField;
    location    "1500";
    object      k;
}
// * * * * * * * * * * * * * * * * * * * * * * * * * * * * * * * * * * * * * //

dimensions      [0 2 -2 0 0 0 0];

internalField   nonuniform List<scalar> 
162506
(
0.0150874384167423
0.0150914175593165
0.016298483529621
0.0164061578095066
0.0167317962177208
0.0165728458629145
0.0151721383322176
0.0151278935995455
0.0164311371473824
0.0158106849896455
0.0153535826301668
0.0150314499862156
0.0150685530835861
0.0150490509938981
0.0150132783016935
0.0150111124964504
0.015324583025826
0.0157351452465739
0.0150448997126754
0.0150920088080224
0.0150561205556971
0.0153412033551459
0.0157499525380699
0.0158004576436986
0.0153758461664824
0.0153291032439936
0.0158118068547492
0.015010302778108
0.0157516776908999
0.0153092747564218
0.0150027627888892
0.0150029864805864
0.0150132931653112
0.0150007573261466
0.0149985329154913
0.0149980729397339
0.0153027721172207
0.0157509027843607
0.015000677081723
0.0150757617597199
0.0162854802397178
0.0162868554652158
0.015071791053395
0.0151160601251043
0.0169421919602731
0.0169512054783894
0.0151187329532537
0.0152570866628765
0.0173879867402618
0.0177210761215463
0.0171052302554108
0.0178912133269153
0.0188732824154875
0.0183098435282149
0.0153536687744309
0.0153030198221123
0.0179965977969746
0.0171592098101458
0.0152291546687521
0.0153346203078399
0.0172187162415316
0.0164794368002591
0.0151769325128586
0.0150524438778664
0.0150163650933233
0.0153484057715397
0.01586818939001
0.0158296423662604
0.0153008631752096
0.0150080529733049
0.0150285255265235
0.0150161668519667
0.0150051477224167
0.0150106214787014
0.0150288340342706
0.0150320627209768
0.0150755666678241
0.0150740626317903
0.0151496130574998
0.016418690636304
0.0164364997604848
0.015088554414362
0.0150133190392492
0.0150029100174973
0.0152981225687579
0.0158259488120425
0.0159353881452017
0.0153536403257502
0.0150018581199724
0.0150105539371412
0.0150023462583677
0.0150017030241242
0.0150002022781353
0.0150016853436196
0.0150056203465177
0.0150010576529158
0.0149989931775979
0.0149990706320639
0.0149995985441089
0.0149992876253995
0.0149990342406431
0.0150012863444231
0.0150010933526477
0.0157505482447016
0.0153026016377191
0.014998658263732
0.015003383222798
0.0153088191419552
0.0157507506930746
0.0150109397435461
0.0150707141535283
0.0162848842646614
0.0162846433096691
0.0150740097083032
0.015114561742133
0.0169491028871736
0.0169507427317789
0.0151214118800338
0.0151609847380887
0.0177427050497081
0.0177086234800067
0.0151609752077558
0.015155980427961
0.0176894522796633
0.0185155110570387
0.0154778512879897
0.0157733487934149
0.0193271301328303
0.0201357511699435
0.018740490202347
0.0197544366367084
0.0212819268312801
0.0206036803600503
0.0166404427577798
0.0160703233825967
0.0201731822835338
0.0189447456488645
0.015580750898093
0.0154595039771905
0.0192316940606107
0.0181480276465265
0.0153564352731829
0.0153191019481738
0.0180739312335455
0.0171542754089822
0.015274956326633
0.0151438186647696
0.0171857335642706
0.0174783201481394
0.0153348843948049
0.0151510240046963
0.0166207398619116
0.0166981198319724
0.0151203404594427
0.015008061423955
0.0150015653878895
0.0153820115018616
0.0159814349342376
0.015921045335656
0.0153476059719982
0.0149991343553613
0.0150044518417614
0.0149999929679394
0.0149998039883323
0.0149990196914463
0.0149973547394825
0.0149981387529866
0.0149993001614372
0.01500044309218
0.015001393765079
0.0150060243469026
0.0150015120342247
0.0150035956774575
0.0150140272537323
0.015049737455349
0.0150141286906921
0.0150119434767433
0.0153238174894824
0.0157333458747155
0.0150455779667362
0.0150882385135899
0.0162948723184951
0.0169447247760226
0.0151167610447497
0.0151124756743634
0.0169381690519831
0.0177001630599728
0.0151561181289
0.0151529553391359
0.017739165616277
0.0186637974833355
0.0153746066009196
0.0153853131804726
0.0186716597542101
0.0185900410048541
0.015416353721563
0.0160095797202839
0.0197382742540621
0.0195753770786985
0.0160848128306054
0.016279178264745
0.0199770345615728
0.0209295837756611
0.0172501776345519
0.0174642405139921
0.0213908118671955
0.0215299910476997
0.017273328609664
0.0165756056141719
0.0205513214450835
0.0214114941268622
0.0167621137438551
0.0173598418743422
0.0228682351118456
0.0248019387038713
0.0179858014779505
0.0186079505292657
0.0246888582111295
0.0251687059620158
0.029017029166682
0.0266327851794157
0.0192639317058658
0.0190593956218533
0.0264464419100335
0.0258197455375189
0.0188988281000068
0.018610347289171
0.0233789288278685
0.0263197998043566
0.0251223176604896
0.0234563526352442
0.0178163378815767
0.0218782838579092
0.0241517406278441
0.0228177199944358
0.0208574177345026
0.0173613933543422
0.0224802422047773
0.0223282572863921
0.0170299055368475
0.0162416023593542
0.0220603915649913
0.0205338440280136
0.0157262212094222
0.0154751627574066
0.0204120713491858
0.0191503063754029
0.0153652975830773
0.0152162504807612
0.0191479043633805
0.0180896389232959
0.01517911844751
0.0154001381232262
0.01858896857111
0.0186843047159481
0.0154149095355287
0.0153323210636576
0.0175659461480648
0.0173564390871956
0.015114083615257
0.0150459167638181
0.0165890936866889
0.0165844091326286
0.0150512518583289
0.0150065868557657
0.0159179873692222
0.0153470335771955
0.0150000941658022
0.0150001579978518
0.0150015708103262
0.0150065626282455
0.0150010108685778
0.015002238480919
0.0150047765715836
0.0159757599866478
0.0153804536005342
0.0153517583142203
0.0150004187784888
0.0150096504993459
0.0159306627645931
0.0166115377931255
0.0151527088488539
0.0150890366083787
0.0164278972446167
0.0164136157840147
0.0151510015030738
0.0150280519917755
0.015008608154822
0.0152998121333363
0.0158276028574282
0.0158213280145743
0.0152968923410776
0.0150033699344624
0.015013634817947
0.0158641267928567
0.0150517620394008
0.0150157870811865
0.0153471398187139
0.0153527039842472
0.0150309246565542
0.0150675199995329
0.0157898278199159
0.0164049935352313
0.0151417079300285
0.0152427102919576
0.0164323694852713
0.016631891385659
0.0164490101303528
0.0157543626486626
0.0153310145081478
0.0150325459268753
0.0150695413389864
0.0157621257045281
0.0153310696276065
0.0153751731161218
0.015768001849258
0.0172587874562226
0.0176110772799136
0.0171293889841118
0.0153430283127245
0.0152483005206216
0.0171287198134467
0.0179579929772229
0.0153268999829685
0.0154393809041601
0.0179093249440911
0.0187463983609143
0.018166709448313
0.0192067979174961
0.0199514330938585
0.0187478915241305
0.0159051994243039
0.0154942677486881
0.0184965237131548
0.0185731598763481
0.0154064618531936
0.0159948376154445
0.0196867522381809
0.0198426164403643
0.0159389088213894
0.0159496508394017
0.019863794423219
0.0217735454230802
0.0168018976062641
0.0174224897947601
0.0232503793631123
0.0255984802269012
0.0178683119810856
0.0177952070641484
0.0249948769452489
0.0277449141949307
0.0192017499447262
0.0193825618810795
0.0272002472701766
0.0265267019513396
0.0195650911080542
0.0193423525280302
0.0284008273663719
0.0325049554232687
0.0274061251487655
0.0297489341304241
0.0357771797332659
0.0303549206897648
0.0198055642516945
0.0193352281963638
0.0298746392995148
0.0279417580826123
0.0192183451579881
0.0190447064588501
0.0267172705735744
0.0253636426523969
0.0185726765395398
0.0180212241392553
0.0236290653546534
0.0232633458454106
0.0173841366508965
0.0172257513432821
0.0244848726677196
0.0239529890949781
0.0168208266730309
0.0158353576210321
0.0219187425077254
0.0218219164984378
0.01551438950419
0.0152822221460339
0.0203790103897355
0.0215500757884882
0.0155261204555087
0.0154627542836657
0.0199338605854286
0.020032838168725
0.0154888694514989
0.015222118015274
0.0193160327124207
0.0182610211375885
0.0151697917573813
0.0151752864623615
0.0182537677078509
0.0173510508411616
0.0151195116544551
0.0153352786924237
0.0175537192287536
0.0166888422940145
0.0151252773978677
0.0150475514650728
0.0150072244145394
0.0150113885732213
0.0150051952845614
0.0150040786154685
0.0150039360323435
0.0150020948015881
0.0150443721641875
0.0150230536296228
0.015054495454325
0.0153358137529583
0.0174643464044124
0.0171728951183635
0.0151410979982926
0.0152759586354246
0.0171447703798879
0.0172068350117895
0.0153372616186579
0.0153622026403256
0.0181292471844058
0.0192001091326167
0.0154765881306831
0.0156204609971429
0.0189001063359157
0.0201119992453184
0.0161503616721896
0.0167160078504168
0.019759808255646
0.021051319883309
0.0204362311478868
0.0222383692533391
0.022547601290019
0.020875917437849
0.0174712135773947
0.0173139064068958
0.0208576536756641
0.0199129130348087
0.0162678257244793
0.0165699450006441
0.0204830461184731
0.0213622614993433
0.0173856281143646
0.0175366259380421
0.0212831314852953
0.0218425481032062
0.0178843540997535
0.0233642358784702
0.0238260887953639
0.0259617148146135
0.0233869400212122
0.018873609444232
0.024982580753238
0.0259601700305264
0.0193760033981268
0.0197053247120342
0.026600396599019
0.0262509484225573
0.0277919090708886
0.0250352590839364
0.0199079292893105
0.0191454796869676
0.0244450822024617
0.0246513969690962
0.0184990847460937
0.0180749413563095
0.0248511410771945
0.0255004920988524
0.0179943864590699
0.0178874546207396
0.025634359688446
0.0257126167414166
0.0178798329117411
0.0194854188909625
0.0287973008270487
0.0285716962236692
0.0194431360977581
0.0207611764779529
0.030655776586919
0.029761934301613
0.0204690395800732
0.0203392648232213
0.029618695519018
0.0288373920904633
0.020368733213019
0.019948265369864
0.0284543419616844
0.0294750364901522
0.0204636210343364
0.0211950378286181
0.0333763123600217
0.032584738311713
0.0397629199635398
0.0323805730165981
0.0201643928930943
0.0194864033541157
0.0318903786608365
0.0312184468908287
0.0192936575626118
0.0189950915024517
0.0294604543700036
0.0273258924386425
0.0188777686137912
0.0179839300856759
0.026194875989276
0.0248832326735823
0.0176793285755596
0.0168146499550732
0.0160755766486955
0.0154545968896481
0.0155063926460226
0.0157025636551024
0.0164472111891403
0.024043805968028
0.0256185039208316
0.0165368745972303
0.016486730374614
0.0252939200192615
0.0248925298473941
0.016645851524913
0.0166027207864487
0.0246070191360226
0.0252965988501649
0.017513877179006
0.0174567133125211
0.0255174796352926
0.0259255674109465
0.0174758043705943
0.0180519042223215
0.026480413382608
0.026011654685218
0.0181220610899603
0.0173173528793223
0.0246177002717549
0.016721091474556
0.0185780608538314
0.027697972872958
0.0295080332763316
0.0195213451435153
0.0190338710820493
0.0285416392940564
0.0273943150067554
0.0177885331075806
0.0167503104229172
0.0282874565634643
0.0307793439290966
0.0163269941926639
0.0162198174312448
0.028116688884158
0.0256235294884994
0.0160800483931535
0.0156151506657667
0.0234648042833331
0.0235577984545997
0.0156432961919973
0.0155555844322339
0.021648101790243
0.0205351934196562
0.015273242932361
0.0152784848158105
0.0205195962400741
0.0193056338155836
0.0152277577734204
0.0154878127955572
0.0199975330643404
0.0186644808968607
0.0154168599412063
0.0153956766679023
0.0185668868642948
0.0180698102278089
0.0151682893817093
0.0153179635701934
0.0180564582096427
0.0191197219744167
0.0153593063752749
0.015456988457956
0.020361667276775
0.0204823940235158
0.0158014567248187
0.0163480709333489
0.0220343102883808
0.0222552390035614
0.0171528228783326
0.0181997070525863
0.02369947651199
0.025153674528675
0.0190977707086362
0.0196244408031752
0.0275206764417432
0.028275440249797
0.0199961488821479
0.0198438884649579
0.0271624186842701
0.0282944513611631
0.0208003441868752
0.0208306889622754
0.0289295132160153
0.0291535961818193
0.0202658955661403
0.0207800396086569
0.030808352358298
0.032060448537036
0.0371267246753629
0.0323589500083057
0.0225349918965401
0.0228270174106489
0.0320681917286501
0.0307447209853796
0.0223627362444149
0.0213941870507628
0.0291862916647632
0.033255790781841
0.0296506601450883
0.0282650478475276
0.0308632041211184
0.0274103962603581
0.0213041860043154
0.0208224146328325
0.0272707605536073
0.0273265779626157
0.0200893854658609
0.0195528596693713
0.0277483026241805
0.0285466251098801
0.0195771677822622
0.0194992265738135
0.0287408338322124
0.0309651377087387
0.0209337421795017
0.0209627689725195
0.0310379810565072
0.030964556068139
0.0208579154539309
0.0208556439886957
0.0307303463679032
0.0339658962108336
0.0228344016700963
0.0226947592535118
0.0338455973333783
0.0328951492255308
0.022301816959251
0.0220338248117431
0.0325178918124224
0.0313464435533998
0.021477260979004
0.0205905921996958
0.0304851614694471
0.0325564913002703
0.0211745628904598
0.0214193220888528
0.0352177705350226
0.0380337019313278
0.0216599814162172
0.0215239280549287
0.0383274729704131
0.035688033898452
0.043868572316226
0.0344403922014254
0.0204829480683469
0.0196441646487277
0.0340499054129796
0.0338501789579675
0.0194457776095423
0.019091678596739
0.0317738388568604
0.0301323716195418
0.0184917564193761
0.0182068861463893
0.0281045546938277
0.017191284418396
0.0164979969567082
0.0162089179730694
0.0162997679852388
0.0157435242205717
0.0156687450381715
0.0156028164718809
0.015560611792329
0.0153306470871755
0.0152787727922123
0.0155796633278078
0.0250896326372176
0.0234639553949552
0.0154393880890427
0.0153375589528013
0.0219273902348911
0.0219030655115708
0.0153351087532941
0.015623890140334
0.0234459517842811
0.0215816762666587
0.0155561068029781
0.0154936017004389
0.0214793823844988
0.0203315667127392
0.0152520885172464
0.0155951543482983
0.0217356203417086
0.0218274564305369
0.0159746177680118
0.0170584233887504
0.0240196798764072
0.0245796231844749
0.0176643715207437
0.0174956543011547
0.0232196324729587
0.0250054287608965
0.0179217302931208
0.0187672443238929
0.0257189002446817
0.0283888515134027
0.0189357056051148
0.0200882341749059
0.0311464479095469
0.0320968790132887
0.0206814829705797
0.0228926571617933
0.0349043599997469
0.0399957437389904
0.0334745032586035
0.0353289871110347
0.0444299933437555
0.0387626303468277
0.0232287361700637
0.0240055272906576
0.0387738620468322
0.0359855604719102
0.0247585396888667
0.0245317774621667
0.0357364789770566
0.0371857385408962
0.0247770982991083
0.025530505884361
0.037864592120114
0.0380497352694353
0.0252071199246117
0.0254506813973661
0.038453456409242
0.040076531794327
0.0257843241826558
0.0257923281329184
0.0403105365693085
0.0409342968019307
0.025840546376119
0.0258253760672425
0.0408647094242123
0.040623820863078
0.0258229882983037
0.0256612723182894
0.040271420050018
0.0395153773152983
0.0254685013993681
0.0251901197416289
0.0391899057120206
0.0385845012685136
0.0249064401890174
0.0237744437847093
0.0375411555891789
0.0347201313175981
0.0223599686008795
0.0227075200558619
0.0390257026573555
0.0439790998155639
0.0230635102335235
0.0234919528562282
0.0506261741987535
0.0411892455071279
0.0218393302515752
0.0221177047885589
0.0451500573844939
0.0443630056393501
0.02183868483857
0.0207964395395216
0.0367271927785028
0.0487823776410354
0.0393401140554248
0.0431142965225885
0.0537901798879324
0.0395161759832985
0.0211007963597974
0.0200978291970872
0.0390736486833898
0.036430737952802
0.0197920539271302
0.0196484119423606
0.0367485693553728
0.034338554875702
0.0192154379183173
0.0186244754332245
0.032440177077115
0.0317552147292084
0.0192400331164782
0.0190258708565966
0.0294916417786276
0.0171753463833895
0.0174011839823341
0.016866148837914
0.0157772482102398
0.0158367049086087
0.0156464084289845
0.0160435126476055
0.0309698018476052
0.0282545731244957
0.0158911031476325
0.0157692163787245
0.0257857778153256
0.0153871353942356
0.0151976678683446
0.0151919676787776
0.0154381419522472
0.0233956874680888
0.0255820763641814
0.0157145021059579
0.015697344343983
0.025507165679626
0.0234123449713615
0.0159671126949053
0.0164559999782049
0.0259273600611327
0.0251553674787277
0.0172712154610596
0.0178681441362906
0.0256115339439479
0.0261989259797998
0.0185439069151355
0.0181114154705016
0.026249847356489
0.0269925113307095
0.0182037969820372
0.0184364227558661
0.0291536533701961
0.0310290174272989
0.0191844405913418
0.0204274283745322
0.0348793002406876
0.0332487243038241
0.0208237505414563
0.0209600689444803
0.0354524609300557
0.0375531020307755
0.048451414453942
0.0426672946903191
0.0235214881688212
0.0243902459230937
0.0436389038940202
0.0412226753000811
0.0259725516736269
0.0266325502679512
0.0417066100730603
0.0449853940068358
0.0267284661406939
0.0267399385052627
0.0462880528304573
0.0466992566577334
0.0268708175943516
0.0273782073427564
0.0487462780290504
0.0493059670698395
0.0271604473055575
0.0274754783265609
0.0506414143750543
0.0511929998523742
0.0276180425002858
0.0280106762035311
0.0527525857091241
0.0545388380977696
0.0281923806788182
0.0282393713061857
0.0552530363122303
0.0553590918855929
0.0280881963577263
0.0283717294332317
0.0559025339368271
0.0570399570097773
0.0283718346232502
0.0282843428012678
0.057086667899741
0.057021144564702
0.0283428230607724
0.0283493395658256
0.0567059682531462
0.0562813872017631
0.0284724295106736
0.0281883501316609
0.0554855278878446
0.0553143793593798
0.0282087639914762
0.0280646750569353
0.0542387561312376
0.0532817666154706
0.0280101661994295
0.0276490464240798
0.0518298305960698
0.0512966860097291
0.0274726831042487
0.0271012878576236
0.0499666209361647
0.0491082349431452
0.0269053707999401
0.0262892775200283
0.0473277995763148
0.0471902320054053
0.0260929242923517
0.0259772997049547
0.0417880524147942
0.0432805497821463
0.0265939461861975
0.026756191405251
0.0436436114985821
0.0442588314672481
0.0271023950857029
0.0271942776726531
0.0442697904500458
0.045086249865293
0.0275600652939865
0.0275829196200036
0.0455805434927046
0.046249016977865
0.0277770294611724
0.0277212351089169
0.0462778155571463
0.0467555279008024
0.0279592067750068
0.0278565968485768
0.0469108229306908
0.0471644288358582
0.0278736482507161
0.0278410014503449
0.0471548659478347
0.0470938217233945
0.0278787374687211
0.0278433126906653
0.0463609871923487
0.0460512450303403
0.0276527327997489
0.0278124700238142
0.0460375920703848
0.0455254050824237
0.0277078999480139
0.0274936875942239
0.0440536462949965
0.0431860887296143
0.0271224011244523
0.0270594972290307
0.0430090807484153
0.0423878766910906
0.0267623930226867
0.0270876887370397
0.0422944566310547
0.0409181508384685
0.0265846272084091
0.0268264792121432
0.0228665280217716
0.0204830530818528
0.017913787322311
0.0173706440753744
0.0166261203391175
0.0164762110595817
0.0159052389262665
0.0157882651914113
0.0157547709133406
0.0154965432397554
0.0154185273803227
0.0158622405729121
0.0279424497347619
0.0281003946631833
0.0159501104903028
0.0161469072940321
0.0309564779299456
0.0286631447589057
0.016789470816047
0.0173486791349745
0.0284469687541506
0.0268332741929219
0.0171999170914209
0.0182357684715018
0.0278494006829299
0.0285533939090857
0.018950789039413
0.0184207484443272
0.0283361225923311
0.0305934216356482
0.0186094376829983
0.0186833222428989
0.0313473403054536
0.0338767035958056
0.0195249358399297
0.0210710414390202
0.0392680553370907
0.0374827307736597
0.0214943776415831
0.0246657903036859
0.0403054247052361
0.0534846032687533
0.0468967277527285
0.0496493643347337
0.0248362518721047
0.0264241909855448
0.0481643877749128
0.052302489368365
0.0271214952853981
0.0281839136677305
0.0556907238165981
0.058392887355571
0.0282774236490947
0.0282627179793217
0.0620110442384564
0.0630300890249211
0.0275908749991033
0.0282392889391969
0.0656817962010851
0.0667824537153907
0.0283241782802428
0.0288065628808068
0.0692594099974802
0.0707477658264087
0.0292607282801365
0.0297794741169644
0.0729058538668904
0.0744269712856112
0.0300735889462389
0.0302726049137619
0.074787432436351
0.0750405316895089
0.030348111860988
0.0308161580469823
0.0760643740741812
0.0779162407289939
0.0307817478028626
0.0306974933720576
0.0777709982053078
0.0775241368615021
0.030793687733909
0.0306986817322064
0.0772691584951222
0.0765498125090319
0.0307645745886712
0.0303557366524256
0.0755651337658664
0.0754303862722215
0.03009350714261
0.0297830530296796
0.0746076857264978
0.0733269696992707
0.0295179863789169
0.0290759041661501
0.0711240450430074
0.0690037255516394
0.0286273878807384
0.0280811966623803
0.0664959453142356
0.0658129319607837
0.027717649369664
0.0270055275562929
0.0645330660154896
0.0568780946126901
0.0259451910660635
0.0256918710186484
0.0509704541572044
0.045489020477213
0.0242394058119602
0.0247455389603562
0.0548913521068215
0.0675583797538216
0.0252610894502867
0.0258281582223189
0.0867919193664871
0.0591906110009455
0.0239139194172124
0.0243348608046372
0.0713173002621575
0.0490366876689624
0.022265314666353
0.0225017413109716
0.054821977645317
0.0520988139675152
0.0220955242375052
0.0223372069574613
0.0617858546690646
0.048395140525469
0.0598756220030076
0.0429832262841904
0.0233061008278316
0.0218667585263615
0.0419954292192416
0.043337508465111
0.0215354807004103
0.0203269085103812
0.0412118894157263
0.0373052253199873
0.019345563207057
0.0187374214223128
0.0350421685356283
0.0342976972225319
0.0193163424316358
0.019784143318978
0.0350899189091609
0.0321351002251125
0.0197579104825592
0.0191691154033413
0.031083886307155
0.0289888976559421
0.0176046004780269
0.0176597889959126
0.0306992223803005
0.0314618581674645
0.0172930087807775
0.017445319516581
0.0342375619114064
0.0342408817938827
0.0162300736804773
0.0158440198241142
0.0289011355401927
0.0268218026068083
0.0157262984034995
0.015726985914775
0.0266773630245502
0.02497299542244
0.0155783446584144
0.0152760859593499
0.0153773489460833
0.0155503624221798
0.016045061539273
0.0305892931756021
0.0338457894981513
0.0163104966314277
0.0175234014239669
0.0342723590598912
0.031781937275237
0.0174972868282509
0.0174374304126212
0.0315693569949759
0.029841512131134
0.0173230030098579
0.0185187175436691
0.0329240130391586
0.03033711944606
0.0183898137565089
0.0191054207714473
0.0312271004692844
0.0341819787401449
0.0192160169346604
0.0187782357948139
0.0330336451890035
0.0337800106381114
0.0189027479216458
0.0198505501144664
0.0371127582817454
0.0442191547461472
0.0214188184154672
0.0217951290997791
0.0424337150597521
0.0475213706778341
0.0675407026003841
0.0574475388878896
0.0254106540237148
0.0256046337928361
0.0661082364851616
0.069937621541512
0.0273255595197314
0.0280488187070239
0.0887351214635787
0.0968971058808357
0.0289171410959433
0.0324283123938861
0.135643341532739
0.136502493798499
0.0326202469258549
0.0339576734215102
0.142833092520758
0.156382101628091
0.0381127206476609
0.0444905289118765
0.156105063695852
0.179403807506758
0.0495205470277927
0.0505781660777026
0.187613278307277
0.191788421368505
0.0503010353337232
0.0494489455865866
0.192279031266883
0.193054840247742
0.0495822544346052
0.0492090847563756
0.191449681659725
0.190533153604427
0.0496869986374091
0.0492813900117569
0.187884116648866
0.187348526908801
0.0497304262573487
0.049403337225846
0.184666993266757
0.185199307659515
0.0498906872188401
0.049618921076203
0.183802751650111
0.185800616920867
0.0502259564228064
0.0502956149856766
0.186044621618936
0.188781811031853
0.0508739475462453
0.0506082553104929
0.192842979807268
0.194269223713409
0.0506384968418179
0.0503663867751625
0.192352365207892
0.191501702574321
0.0505362906059257
0.0508633224811052
0.191335546030315
0.190397543018523
0.0504492359395845
0.0506609852831765
0.192215047946458
0.190585681676656
0.0502466113442239
0.050808837900355
0.191731228141377
0.190032960476569
0.0502951967594826
0.050437442526301
0.190731855015622
0.18968612555755
0.0498997201195383
0.0502151346732502
0.191936959811387
0.192236098652507
0.0497504800021864
0.0501360244831593
0.195575952896734
0.196957943270519
0.0496415110048518
0.050288520945745
0.199879726661886
0.20019894406381
0.0504335158825712
0.0514961152366162
0.200042853522407
0.19537894763892
0.051730379887113
0.0504554169638699
0.186072400818662
0.160819288859091
0.0452402753481447
0.0393277410510214
0.162060874999927
0.152330919514473
0.0354860942096677
0.0323804696466489
0.149907688209682
0.101679657658671
0.027413714110047
0.0267472547725522
0.0842910717227588
0.0732623292609374
0.0264243245480831
0.0260115433743752
0.0635908929822458
0.0774808547355058
0.0275453087458113
0.0288592523506654
0.0940046896835267
0.117296321659281
0.0300647478202648
0.0331206698034151
0.117334477464047
0.121561575338457
0.0371845437493419
0.0438495673223295
0.137950771119732
0.147645515977038
0.049515676345287
0.0506722568708953
0.153210430944723
0.157557556405915
0.0509984195138336
0.0495404017269483
0.159798401241249
0.162127316579232
0.049456776852698
0.0483523311763556
0.160750463807531
0.161570942635051
0.0490007965293699
0.0483357778161648
0.15908032516419
0.160231939310189
0.0489428654913127
0.0484213261246018
0.158218168753773
0.159976361835242
0.0490676841896553
0.0487950118818769
0.159370161529387
0.161235184679439
0.0494152322346478
0.0487593809489357
0.16068575967935
0.162031877371788
0.0492407656800851
0.048990395490927
0.160624893229941
0.161524027798131
0.0494080961293664
0.0490819059080166
0.161776753130361
0.162082481575433
0.04895014074965
0.0492164180859801
0.163533016033423
0.162707841502087
0.0491350267726905
0.049406742397905
0.159100389741556
0.1570683753763
0.0488064841435835
0.0487949111990456
0.156596601607501
0.154692227991858
0.0481344751570618
0.0485440181629571
0.155952738734474
0.154598819685908
0.0479455114057149
0.0484587483270683
0.156939893387285
0.156014108505853
0.0478785586777913
0.0485515476780497
0.157824382679142
0.156755954686278
0.0479371812274183
0.0486806631115837
0.156967339627458
0.154066147642013
0.0485066743671182
0.0497989065798792
0.151861706791654
0.147795819336188
0.0495844224000114
0.0485371736791205
0.142862011602589
0.133903738139918
0.0431244616205852
0.0358529371109081
0.119087875882048
0.111050048989305
0.0414233738690823
0.0457628071684692
0.116549066493944
0.119757365416825
0.0466012707466317
0.0474162256993025
0.122829367234114
0.124134812960434
0.0463452232663678
0.0471689882295598
0.126971866833521
0.126940426562692
0.0461984165845445
0.0469389137056341
0.129352383543479
0.12813986320927
0.0459062975671865
0.0466659409800686
0.130043239828028
0.127988848897373
0.0459177298425442
0.0466529470275315
0.12974004551193
0.128688295139877
0.0460862115135114
0.046788088234755
0.130289751862303
0.1309588862223
0.0467391333477472
0.0473497703756612
0.132257845885009
0.135390156748829
0.047069090347411
0.047197195393933
0.135881637754671
0.134810815205586
0.0469397649367997
0.0470212356097941
0.134737035078069
0.134440271507482
0.0473368837166871
0.0469454559097881
0.133780069420143
0.134811119794564
0.0472314998174303
0.0466895661605234
0.133723734359616
0.133835829616147
0.0474537386259704
0.0467120793696629
0.132132087392325
0.132605622930571
0.0471418174012333
0.0463648878157444
0.13053400297631
0.132346020516682
0.047153097050025
0.0463413945423899
0.130224773945118
0.132153745460601
0.0474065440187643
0.0466115726403067
0.129805613246907
0.131103980462678
0.047956662862476
0.0472649100488834
0.128493643253221
0.127050709998335
0.0484735734353004
0.0475586579510456
0.123780121290364
0.120167197202329
0.0467096557388991
0.0421135152926789
0.114339958920508
0.103566948561954
0.0379690558767559
0.0328111927967622
0.0950308577304444
0.0940221491252938
0.0306273587296276
0.0287938548422618
0.0780367687164275
0.0791218803766675
0.0294096134603712
0.0302377409261838
0.0828774667015252
0.086224284307806
0.0305677801627057
0.0393015082648267
0.108496472211046
0.112103907659151
0.0389782243696596
0.0386453721364882
0.11291075282216
0.113111822628712
0.0385692874429954
0.0386589783481226
0.113213410350972
0.114430193644608
0.0389427757589147
0.038787533287953
0.115542304670456
0.115566635648237
0.0388768338319219
0.0387140002041309
0.116116418420715
0.116706043392706
0.0388385674452231
0.0389553124946669
0.113437608571027
0.111665641482495
0.0385092276553267
0.0383851892276692
0.111183829112947
0.111333861723226
0.0383119803878429
0.0384485974007268
0.110468933080077
0.108377233578548
0.0385094823541356
0.0387103364888146
0.105100601730412
0.100656122997646
0.0372280231158509
0.0318401074016896
0.0938965941231553
0.0896921145465757
0.0292856174305743
0.0316617297131971
0.111312240335451
0.108093611449121
0.0307116100199135
0.0302772299154421
0.106571779465605
0.0805089820615841
0.0284482294191684
0.0275814478065366
0.066577751458946
0.0696761051989226
0.0282908943027037
0.0292335749233704
0.0852777312676622
0.0879447422215113
0.0291719230591503
0.0285229885258153
0.0728420580360036
0.0742946754952798
0.0281514046275332
0.0290047660814148
0.0782923422156097
0.0804277093241933
0.0298090222982781
0.0302629946700636
0.0837226557256406
0.085528007481504
0.0305062139813695
0.0312638135797701
0.086530187914574
0.0867946981539139
0.0318007674933122
0.0321775266797586
0.0864499563788463
0.086452376745298
0.0324342219221235
0.0329820500620789
0.0876256306781847
0.0896611550468584
0.0329761373756919
0.032895345976138
0.0894173010799427
0.0890916186836717
0.0329976715744238
0.0328564837327724
0.0888534350352791
0.0883363318266085
0.0328244135143321
0.032323951736124
0.087645456395926
0.0881392561247318
0.0318331661930494
0.0312585596436834
0.0884624561088043
0.0885686689216111
0.0306949491270228
0.0300856368384743
0.0268207004288404
0.0263730974918105
0.0258509831641623
0.0252376881744422
0.0233793856954586
0.0232124233152948
0.0228716037319175
0.022557145628144
0.0201144279593133
0.020064496347631