/*--------------------------------*- C++ -*----------------------------------*\
| =========                 |                                                 |
| \\      /  F ield         | OpenFOAM: The Open Source CFD Toolbox           |
|  \\    /   O peration     | Version:  2312                                  |
|   \\  /    A nd           | Website:  www.openfoam.com                      |
|    \\/     M anipulation  |                                                 |
\*---------------------------------------------------------------------------*/
FoamFile
{
    version     2.0;
    format      ascii;
    arch        "LSB;label=32;scalar=64";
    class       volScalarField;
    location    "1500";
    object      nut;
}
// * * * * * * * * * * * * * * * * * * * * * * * * * * * * * * * * * * * * * //

dimensions      [0 2 -1 0 0 0 0];

internalField   nonuniform List<scalar> 
162506
(
0.00149779405815303
0.001552175625848
0.000102987340682377
7.8800695497949e-05
3.92610709294729e-05
9.52643139953315e-05
0.000460203769970016
0.000530880814818055
9.31985308122767e-05
6.34523308252702e-05
6.95894857079548e-05
0.000885927912520999
0.000936965921675941
0.0013019049675411
0.00293193744435852
0.00332149781752668
8.95290161574389e-05
9.28913945546208e-05
0.00132939600209726
0.000677623181403289
0.000910846712834193
7.9873984507734e-05
8.51388721772081e-05
3.87255455993863e-05
4.36014181980763e-05
6.12589593289026e-05
5.67982760675036e-05
0.00570461978175719
0.000106154369411183
9.82012926655295e-05
0.00813588839103646
0.0077243623617984
0.00496190223803419
0.0104495646381751
0.0150001157091836
0.0149413107273942
0.000100603868942724
0.000109813021369535
0.0106568539989706
0.00846307884730537
0.000113129420491129
0.000110713075834487
0.00510450126614569
0.00458127435988826
0.00011074639442739
0.000110630707178677
0.00324820263136574
0.000815451950929589
8.70931329886043e-05
4.53256052239042e-05
8.51772525664604e-05
9.13393225087544e-05
5.0079141203606e-05
9.64931455799089e-05
0.0011608842918171
0.00128191722016303
0.000101217887472826
9.79042449839788e-05
0.000863636060980098
0.00214226942649497
8.2500895509368e-05
8.17069603219799e-05
0.000955023140065538
0.000819817827222627
0.00228422560576304
8.06790889692437e-05
9.25358330218637e-05
0.000109623837392129
9.78207050906569e-05
0.00434992348209601
0.00283494814443776
0.00418194182719058
0.00593928195312622
0.003529527324186
0.00247402854480218
0.00192462072473669
0.00167931591723004
0.00333942314363295
0.00298425577479368
0.000102682715347033
0.000113684754046739
0.0053030616274406
0.00507019990634081
0.00827168394561767
0.000102931290746768
0.000112842901725449
9.99223028997427e-05
9.0220492048966e-05
0.0101040508698193
0.00566184264920082
0.0131023830044883
0.00962086578463737
0.0145273576470666
0.0125322643473541
0.00871252214822966
0.011666624557849
0.0150003106118914
0.0150014786365861
0.0150016947256124
0.015000440852287
0.01500033832896
0.0103849898054437
0.0109423580075835
0.000109774175945671
0.000100687838593807
0.0149430615276382
0.00731797606961683
9.82866059403063e-05
0.000107008823826666
0.00569907736901939
0.00570775984854592
0.000110705789874004
0.000113664523478164
0.009313523010022
0.0080372310544099
0.000111184065416585
0.000110076326068621
0.00787803814129265
0.00485502254349165
0.000110956904550356
0.000110718555230067
0.00380478829888766
0.0033430195849716
0.000115615010751025
0.000112462770514219
0.00230354412307327
0.00112570453411588
9.69967504877376e-05
5.41724392367501e-05
9.42751086298333e-05
8.76786858052387e-05
4.83543824401492e-05
7.64190021225427e-05
0.000744114921156049
0.000702630734436358
0.000112255955099814
9.67026711502687e-05
0.0013138976616086
0.00219432846684655
9.34314635470115e-05
8.75991099670621e-05
0.00271920430368522
0.00373568118847688
0.000107805787187705
0.00010607315337883
0.00351571275210781
0.00824552421146621
0.000106405721753697
9.81114230736916e-05
0.00480107029828573
0.00691887049660435
0.000104860844725576
0.000102388902836442
0.00802706800364023
0.00709637415044975
0.011014141513047
8.65932369310935e-05
9.60092507043347e-05
0.000105912808753753
9.42711172079599e-05
0.0149278965734392
0.00818186360218849
0.0150011154199951
0.0150007007745628
0.0150003450587424
0.0150008111944826
0.015001093712636
0.0150004694234135
0.0134230261582198
0.0141985556541867
0.00868994953624072
0.0104539303621214
0.00703760366258082
0.00489604635017842
0.00126311917432982
0.00278923900739629
0.00312905960796026
9.01386623645566e-05
9.62960282890598e-05
0.00143555461646359
0.0016888887931794
0.00010301713062109
0.000110804950925587
0.00318638892910381
0.00532191467694066
0.000110970546480142
0.000111898685966099
0.00415790764955507
0.00515542964923731
0.000110579269821063
0.000108170186769626
0.00276141193047501
0.00274996054941202
0.000105268750789697
0.000108593293617315
0.0025182131446019
0.00135782338069315
8.98273808657645e-05
9.46401734419084e-05
0.00138291909964825
0.000725726258950007
8.71375359840413e-05
8.64020859320599e-05
0.000720432289756282
0.000611256396476289
8.03572225954572e-05
7.61408802529142e-05
0.000697421111847516
0.000640362537288661
7.77320917996773e-05
7.31180891826701e-05
0.000815254241823103
0.000588016856540811
5.39889787121099e-05
5.21221647681987e-05
0.000509999873483447
0.000618414312794442
6.46507972511301e-05
5.751892759635e-05
3.32084242084463e-05
6.77640807849782e-05
0.000603946236251322
0.000540511899923671
7.23238047075868e-05
7.24096381249207e-05
0.000492170586157028
0.000480912145595888
6.0295888722677e-05
3.58894504970769e-05
6.82145064816931e-05
7.44076170156958e-05
0.000384340663960858
7.05378031993047e-05
3.37055194236419e-05
3.50647421033819e-05
7.43906580741061e-05
0.000503870000097355
8.75682247100474e-05
8.46248752154441e-05
0.000561170790269822
0.000968539702174786
8.65178535485307e-05
8.63002772364459e-05
0.00153007982531313
0.00207995224042825
0.000110603813955605
0.000109299115193406
0.00293725684347249
0.0043225194130895
0.000111643212579716
0.000107225812130218
0.00702216978322353
0.00436783534338414
9.51546452131698e-05
9.55645871099283e-05
0.00442218258634114
0.00496044136505016
9.77707377398236e-05
0.000115481392223608
0.00894252718719849
0.0113981406798397
0.000114555183074145
0.000113471510825107
0.0112409300555364
0.00701970197445677
0.000106435221636222
9.44094039327874e-05
0.0149281213664851
0.0147847971365653
0.0132761764191485
0.00587773624168351
0.0116678300821005
0.00941394249658297
0.0122222590922757
9.55658596980067e-05
8.70039121219781e-05
9.01437919739356e-05
0.014691302404808
0.00536395287889553
9.95848383417779e-05
0.00010366937542564
0.00671417070060408
0.00564657900937363
0.000113321722185171
0.000102799088292782
0.00279485079907482
0.00295213919838356
0.00412945528252691
9.71565955816645e-05
0.000110734392363486
0.000113005570414774
0.000102844360890829
0.00766044747376116
0.00509394623028419
9.101994657609e-05
0.000831308855075263
0.00235096296546428
8.14042015819346e-05
7.01139053900743e-05
0.000880433681407325
0.00101908813169552
6.37797673106413e-05
9.47446589738234e-05
0.000531951104541239
0.000455061459010733
7.79975697987252e-05
4.00561604557343e-05
9.87572126712791e-05
5.99531594053636e-05
6.40394803445755e-05
0.000927461100368487
0.000680692554359965
8.46167525047286e-05
8.28991050313333e-05
4.3752202460365e-05
3.95217127593622e-05
8.37538200701768e-05
4.5751093790621e-05
8.63678580970112e-05
0.000777724253940251
0.000875652679631626
9.74996660481141e-05
0.000103776276965991
0.00128209372282232
0.00117352801018452
9.25378905079391e-05
5.03683561064104e-05
9.53879761686496e-05
9.68381519346871e-05
5.38091217979928e-05
9.33021756648867e-05
0.00115155715706688
0.00236287357660783
0.000113801643866336
0.000106891137856139
0.00267047070600835
0.00135404116561197
9.44176593725257e-05
9.52165172772239e-05
0.00128781536660448
0.00135006812607289
9.68181353199406e-05
6.47532304208306e-05
0.000712987836980985
0.000422608681736383
5.19335823836001e-05
4.2989877140928e-05
0.000288920204358643
0.000373858548623545
4.75740064662424e-05
4.21588391405251e-05
0.000287838675029265
0.000385491292591173
4.75388064713227e-05
5.36933956859278e-05
0.000513715987327525
0.000622746330411013
6.21249461769643e-05
3.35137037179659e-05
5.22792534056167e-05
5.30024086910997e-05
3.82918755478069e-05
6.54325053911213e-05
0.000391789480615409
0.000488286691307611
6.65911706570869e-05
6.2902051185888e-05
0.00086415887681393
0.000419064027888864
5.64650678170331e-05
5.08521352267638e-05
0.00038394349403473
0.000313631876141951
5.87219096808493e-05
7.29391285024698e-05
0.000428195096786679
0.000826138503040071
8.04385525547136e-05
0.000110107457773949
0.000836388862370721
0.00131593242137918
8.93474766510858e-05
9.54963181214735e-05
0.00156079724948946
0.00262159635158715
0.000113726763339889
9.82757821358431e-05
0.00289636814563839
0.00413470372062764
9.60055229197224e-05
9.6578757007708e-05
0.00413528386928245
0.00489617207601648
0.0001151295304989
0.000114693417180034
0.00793505119791302
0.00792058974365191
0.000115011025106227
0.000114997719167691
0.00894416889013758
0.00493980792481128
9.64764005438132e-05
0.000100261396468792
0.00754460701664466
0.00319901361023626
0.00774644423528307
0.00777264017741051
0.0147373989674104
0.011947822072554
0.0105111009722939
0.00879805482232575
0.0115705728315859
0.0134230975880207
0.0110915245227905
0.00476620595194025
9.85274230655935e-05
0.000105249574155536
0.00819970408518464
0.00341742658093626
0.000105877953690324
8.30663734288633e-05
0.0020576927765423
0.00290608327832992
8.69785781266771e-05
9.27779259858567e-05
0.00256265986999896
0.00136894102074809
9.76354190736186e-05
0.000109872455606139
0.000730177445202949
0.000824827163384463
8.52834255757945e-05
4.67749887455737e-05
7.71503250071726e-05
8.44148813489744e-05
3.39705477569428e-05
7.08180005521432e-05
0.000540845743402013
0.000635677181554174
8.54530904313339e-05
8.61138174278289e-05
0.000724872067901559
0.00066861513674683
7.98670349107194e-05
7.57796931242924e-05
0.000586095019019478
0.000545917043566515
7.63954956262139e-05
6.32767963969166e-05
0.000374520385222755
6.72054918332477e-05
3.27133254247671e-05
3.27010498722655e-05
5.57614200121411e-05
0.000389119096914363
6.15266688804351e-05
6.38147533437348e-05
0.0003225756461424
0.000411070592858373
5.45928924911024e-05
5.2567479961268e-05
2.81027078490021e-05
5.04939247526995e-05
0.000424333079476935
0.000488979318807213
5.7257772280781e-05
5.31298735915469e-05
0.000408986769765725
0.000283310131198675
4.34165406492707e-05
4.00496512335618e-05
0.000259891575447341
0.000245907297531444
3.81405028483627e-05
3.9213418227139e-05
0.000250091281194992
0.000184578856181486
3.64087492154359e-05
3.55929466686178e-05
0.000214128359404872
0.000177643214015996
2.96762196445236e-05
3.73461814120392e-05
0.000190488461107195
0.000259500081862541
3.7450304429773e-05
4.28370686534057e-05
0.000295329813116724
0.000342637076800271
3.77662137770201e-05
4.470668256481e-05
0.000325340810349019
0.000277075835932986
4.3288384286859e-05
5.52905423952666e-05
4.28085899683481e-05
7.00572611714727e-05
0.000312041118906414
0.00038063373012291
7.36460386974562e-05
6.74518991186463e-05
0.000448566510139791
0.000507063934075729
6.27921040857992e-05
5.64076764666711e-05
0.000445003204327633
0.000432508890395907
7.55656056353627e-05
7.25219275453051e-05
0.000491417327752889
0.000494211591237391
0.000610706460029339
0.0004926382414955
0.000304175073855345
0.000435662033709151
0.000835221196533816
8.29690692321314e-05
6.56635290831023e-05
0.000577993639155089
0.000364035934382604
4.64293509581674e-05
5.11108659158748e-05
0.000461487419354621
0.000754359424824385
6.36759321482232e-05
6.79964835210685e-05
0.000474131631183592
0.00039046802091794
6.02708390437951e-05
5.44097528367778e-05
0.000333851668150822
0.000336777911616014
5.50301268686703e-05
5.30441833081326e-05
0.000499824767409163
0.000950202477861317
7.45122910408696e-05
0.000477660241160476
0.000714300367469004
7.37895719958118e-05
6.30553152634571e-05
0.000583620883788758
0.000505487994448521
6.06663079272185e-05
8.1523821229224e-05
0.000380717112510139
0.000461433875096341
9.74546638023183e-05
0.000107550500459379
0.000651290099270252
0.000663773538489575
9.36329030748913e-05
9.22576954192714e-05
0.000973507627613753
0.00177989731114791
9.22449285140428e-05
9.66521369884475e-05
0.00172960338447164
0.00304822497480267
9.71777284275547e-05
0.000114939284183142
0.00275129394926786
0.00283541757706685
0.000115300821948258
0.000115421302091499
0.00519565066882013
0.00411908144453887
9.69211869474196e-05
9.57629560070329e-05
0.00440126309270187
0.00435109667544213
9.59425060285026e-05
0.000107234963768297
0.00760978665520452
0.00412408238069435
0.000107786700856215
0.000112850511292726
0.00320660698147218
0.00234722385706045
0.000110595023773417
8.33185949659871e-05
0.00187574674183865
0.000897128710525053
9.17629925216803e-05
8.11771847015711e-05
0.00052133452321043
0.000299540961890216
5.48782172217421e-05
5.80960523574574e-05
0.000791643161081817
0.000560317241805276
4.65126599231104e-05
5.68086381925762e-05
0.0007973128505288
0.000585252932065395
5.46510293436213e-05
5.32609082194582e-05
0.00041783146955231
0.000423327223633983
5.47490865942447e-05
5.40213340122145e-05
0.0004307884985443
0.000389158542724414
4.96170174091624e-05
4.82900143393511e-05
2.61107369740967e-05
4.10205806861044e-05
0.000285138066614133
0.000243911975420612
4.25330639489737e-05
4.5522011599834e-05
0.000224932887365482
0.000334892109080053
3.98411561050822e-05
2.46705626447209e-05
4.25945196439623e-05
4.49133402830018e-05
2.66080594082639e-05
4.538546156347e-05
0.000428829531065055
0.000443208729990297
5.32031356207681e-05
4.36824474552379e-05
0.000306306208380491
0.000217302621728271
3.63277292129629e-05
3.8525171194429e-05
0.000182491992442282
0.00017445118810251
3.72381743755693e-05
3.26502939578618e-05
0.000129676990451937
0.000127847477081712
3.19746676100084e-05
3.07386423055768e-05
0.000153048628432997
0.000147317190796713
3.34212508658784e-05
2.62070367218674e-05
0.000126192735620231
0.000140591870571225
2.41457336659187e-05
2.97864259255691e-05
0.000168640577611764
0.000213475410423871
3.01998539437989e-05
3.56662139239382e-05
0.000242838208341025
0.000263718298070198
4.08048330305944e-05
3.35270955115733e-05
0.00024680744442438
0.000212287040949937
3.78726948027633e-05
3.8985450988448e-05
0.000204301604257956
0.000265661327231407
4.76863268147269e-05
5.93997723144577e-05
4.76858370606256e-05
7.56745890589033e-05
0.000303583922202266
0.000370169443041536
7.98107557354115e-05
7.31524804675191e-05
0.000430555594256709
0.000575764898732117
7.03239197226343e-05
8.11304767534709e-05
0.0005564540262414
0.000439004573100436
8.01515963161929e-05
0.000373475559312388
0.000294548938114836
0.000184148485118456
0.000124809617650764
0.000137439754558712
0.000211765854951937
0.000223250601062223
0.000156883220109096
0.000281540783643771
0.000472806826317197
0.000651747255739586
0.000108925058732884
0.000110071417579344
0.000962674954330017
0.0015845350744829
0.000113288028979141
0.000113805110480231
0.00159236772908898
0.00169952629131813
9.76777164921918e-05
9.76077672508951e-05
0.00316784115607035
0.00304149459079303
9.69308003337565e-05
0.000115203651255527
0.00303983901005526
0.0017135934283199
0.000111092236886235
0.000112609374057247
0.00129377008624837
0.000935823682765117
9.50968986330509e-05
8.26774069162129e-05
0.000963726506145789
0.000412038095796725
7.36012254233163e-05
7.28012518322853e-05
0.000425890692004707
0.000409497607956472
4.15968322887254e-05
4.91281964231352e-05
0.000464017468030246
0.000444777083384884
4.79957862932721e-05
5.230048739305e-05
0.000328593740438681
0.000287833475832601
3.93149018882807e-05
2.58796171823344e-05
4.45224068250183e-05
4.64396850310372e-05
2.96975627940249e-05
4.12337485959028e-05
0.000233902714265534
0.000200668755573189
3.53609866239661e-05
3.02260989517943e-05
0.000230007391866118
0.000189740868042906
2.84285983942303e-05
2.34420371851979e-05
0.000175285607203623
0.000148556277729059
2.28005037621764e-05
1.74670895709947e-05
0.00012565037238229
0.000111449300185262
2.22475963545051e-05
1.82588672239385e-05
0.000107155438007381
0.000108752659223173
2.23725449329891e-05
2.32673135384905e-05
0.000107599322751145
0.00010605930982794
2.29373058927235e-05
2.24591242372924e-05
0.000106086947780223
0.000107877494924664
1.82021393838204e-05
2.23993974814479e-05
0.000117288339208011
0.000135136650894414
1.78593021692408e-05
2.32306050689638e-05
0.000154948113293071
0.000188880847628003
2.53586132512312e-05
3.08832841612999e-05
0.000212679640144888
0.000181782399737565
3.07726070432323e-05
3.29885806431714e-05
0.00017514604817189
0.000160656015794514
3.89405756881693e-05
4.30085864217112e-05
0.000196563518720233
0.000204871191455506
4.97812079094295e-05
6.12842639968286e-05
0.000293375737334466
0.000348770835969379
8.32349825975495e-05
5.38965641436669e-05
6.98296565463188e-05
8.08610253627339e-05
5.87384092369139e-05
9.37395284379459e-05
0.00044911657131874
0.00055178900229727
9.58114695659963e-05
8.75366162199376e-05
0.000419562759864821
0.000454760218956925
8.08895633809234e-05
7.61978379912254e-05
0.000495971923548159
0.000570542682056189
7.95989300212688e-05
7.6852791666067e-05
0.000571131771115969
0.000522116830404625
7.24902461754689e-05
0.000507823052693996
0.000360838130479463
0.000410918924040975
0.000383193783119517
0.00043474612401494
0.00050858066393215
0.000626648187181355
0.000111646412745501
9.79947762777258e-05
0.000760960712649166
0.00105692004520418
9.56917683125919e-05
0.000816042772008597
0.000766833486211855
0.000720769896542492
0.000944503225533062
0.000110151267557677
9.55774221368897e-05
0.000977268718010706
0.000973133262139029
9.27813929231557e-05
8.84761569077193e-05
0.000949084048058399
0.000595008974657285
7.66647588031575e-05
6.5990754255814e-05
0.000713602498325272
0.000639962591202014
5.96342311888784e-05
5.95971309607714e-05
0.000727356979275853
0.000593514489870051
6.46388328610867e-05
6.52976922845271e-05
0.000429545384445925
0.00034528426617331
6.14356062284066e-05
5.35232256736591e-05
0.000332358333145379
0.000304384629321648
5.12169292042862e-05
5.02364860949699e-05
0.000255812477623072
0.000220509968945427
5.84232240358602e-05
4.91061989782057e-05
2.98496755335999e-05
4.30365816833781e-05
0.000216290890626748
0.000181964287680363
3.62405606133932e-05
2.86890371981063e-05
0.0001969947995959
0.000190422750300302
2.44357979980987e-05
2.08159961207214e-05
0.000129829995110566
0.000145695592515694
1.61718243705897e-05
1.79053747897331e-05
0.000132794112778803
9.69894525145972e-05
1.99265955099485e-05
1.60171634037865e-05
9.71171997005403e-05
9.47920260152482e-05
1.92214596700109e-05
1.67056477352177e-05
8.5647338212612e-05
8.06297828290873e-05
1.90447961727654e-05
1.69374723445683e-05
8.34943477262134e-05
8.96920123910912e-05
2.76111325825965e-05
2.08025507360726e-05
9.73933328286032e-05
8.1821567162353e-05
2.4921464225393e-05
2.61433177582783e-05
8.69955969209454e-05
9.3979871657973e-05
2.98437367235717e-05
2.77921328379738e-05
8.9609534383156e-05
8.61761927591372e-05
2.08808127738082e-05
2.47564052468895e-05
8.13125949301074e-05
9.26551844897844e-05
2.03061498614941e-05
2.29714924308625e-05
8.94414433786187e-05
8.31684813821227e-05
1.65477140191463e-05
1.73076560145034e-05
8.3116582237091e-05
8.75583633411069e-05
1.70404896520815e-05
2.06536066459045e-05
0.000102268263087594
0.00010943593558937
1.66176182045215e-05
2.03568380790267e-05
0.000107069272092004
0.00014607013067116
1.86411204121218e-05
1.78379275460029e-05
0.000182689952131614
0.000153803561011849
1.86620960293863e-05
2.08096438579509e-05
9.62609290495044e-05
0.000102133510041628
1.57584607820711e-05
2.25064042048278e-05
0.000104123811414082
8.9662020683817e-05
1.8110447508943e-05
1.78556160612467e-05
8.16985116755072e-05
7.95971504556128e-05
1.6722203687798e-05
1.96881943167425e-05
9.02429961049046e-05
9.60814140874324e-05
2.07969199318957e-05
2.48791722782515e-05
8.48320829042518e-05
7.92306857075423e-05
1.95854390185741e-05
2.51778108134053e-05
9.49923474244432e-05
9.80743594123485e-05
2.60087508919175e-05
2.46595225686475e-05
8.74928928543975e-05
8.88483454919075e-05
2.60234624814269e-05
2.08553033832257e-05
0.000103822006265977
9.4057161000888e-05
2.10861671872157e-05
1.63218286310766e-05
7.89783544153958e-05
7.92001802264581e-05
1.83447535348813e-05
1.77163674579529e-05
8.82242942783446e-05
9.60559175577898e-05
1.99263622110224e-05
1.56416543157677e-05
9.13675574553501e-05
8.89022364120676e-05
1.97546648852106e-05
1.85157074619864e-05
0.000126980453535733
0.000160775940671185
9.1569946830586e-05
7.98568197849284e-05
6.10091474214448e-05
5.94285286867721e-05
5.9714295347669e-05
6.7414821355834e-05
8.72036045691043e-05
0.000126577315792998
0.000248324766255792
0.00033431777157485
0.000498982112617972
0.000653269718703423
9.5146136834211e-05
9.20616030011652e-05
0.000668913003402004
0.000555435110324407
0.000100825101905976
8.19075283158538e-05
0.000493397464851145
0.000429910654352022
7.2729557389169e-05
7.00765691159065e-05
0.000460665953780066
0.000472250206665906
5.75404974596306e-05
5.61363238276535e-05
0.000519752719283004
0.000410087713507386
6.17382670177768e-05
6.59707098005247e-05
0.000358372971757202
0.000297347033549841
6.49537432948904e-05
5.75370358381578e-05
0.000266740376267068
0.000272693044222682
5.66397972568912e-05
5.23396357190167e-05
0.000212351043184067
0.000197550797377696
4.85499416047966e-05
3.4186688637662e-05
4.4973286139237e-05
3.9797251111148e-05
0.00016796275473387
0.000185814577557213
3.07776904259144e-05
2.28834498747763e-05
0.000154426859721485
0.000166636474943268
1.92083651790602e-05
1.96941071379813e-05
0.000119735877066006
0.000108178346818617
2.18938302254624e-05
2.15518201398591e-05
9.8277962428646e-05
8.37507062162465e-05
2.34831967520981e-05
2.27364393048181e-05
7.52025379697395e-05
6.95365242882701e-05
2.25751616977677e-05
2.29179887168988e-05
6.06144113365834e-05
5.42742095867661e-05
2.4209128088213e-05
2.39643964923687e-05
4.9699441366737e-05
4.53797297058834e-05
2.31905004386901e-05
2.10086904389615e-05
4.31002118905008e-05
4.01321055417808e-05
2.30298258717329e-05
2.46568790200969e-05
4.05232868696708e-05
4.03209384866877e-05
2.46536012111382e-05
2.3688268522966e-05
3.99012933388783e-05
4.12707153178875e-05
2.26910179747999e-05
2.33632288022978e-05
4.19439883182198e-05
4.54190237857057e-05
2.24785348574058e-05
2.50669586793696e-05
4.99342442950027e-05
5.56011371258148e-05
2.38744682750481e-05
2.28694167915041e-05
6.1574875725115e-05
6.67932066696374e-05
2.34078601601466e-05
2.40275397124405e-05
7.65845262320372e-05
8.60771360728671e-05
2.34618481796297e-05
2.40321634274432e-05
9.38352805134781e-05
0.000120115417679946
2.33371581329709e-05
2.20848060112579e-05
0.000118133980053296
0.000116848250903165
2.17062367406569e-05
2.24559597865542e-05
0.000149334203487384
0.000142267848629185
2.85094154329489e-05
3.62209237972791e-05
0.000141297724520333
0.000153254857337246
5.12812719380192e-05
4.90942690899938e-05
0.000173741206691239
0.000182924049761097
6.39033545879713e-05
5.32898372275949e-05
0.000223656251962154
0.000251360636861151
6.21431846689886e-05
8.31521907059024e-05
0.000365332635951575
0.000469713158213348
9.54458055376501e-05
9.11135555631281e-05
6.1429895358255e-05
9.86362567196747e-05
0.000617692135951333
0.000755866190610811
9.41058927394885e-05
8.92526267910633e-05
0.000689652547871346
0.000667248043949419
8.33480438379778e-05
8.07587949311432e-05
0.000591234850033679
0.000678613353438794
9.22912813454537e-05
8.08933570386368e-05
0.00073282147963315
0.000958854081862228
8.14198246618456e-05
7.12049669386503e-05
0.0006412753100931
0.000650499347984034
6.57839487335123e-05
8.70952934350737e-05
0.000560921141307637
0.000786429027166714
8.6131692534986e-05
0.000110740306706481
0.00120801894181948
0.0010976220451524
0.000116993962441288
0.000139764287725297
0.000968398500893279
0.000852512301389846
0.000143598118205865
0.000119842919891388
0.000573417239284767
0.000532807823154355
0.000118070993152762
0.000108053046522287
0.000614239749582572
0.000430079285294523
0.00039477332166814
0.000431354913114962
0.000548562921596577
0.000107508919601008
0.00013766062699485
0.000817750628973634
0.000874710202703634
0.000117594026083239
0.000103920318653306
0.000862848676150628
0.000604256831243701
8.49182628167754e-05
7.7609466736557e-05
0.000430910785976446
0.000449120325201999
6.85306867589986e-05
6.11415859319573e-05
0.000429285117221093
0.000477510839605557
6.03349621815357e-05
6.9099442488608e-05
0.000494598330913052
0.000382153720512897
7.59747444383368e-05
7.48922087290247e-05
0.000342773267988181
0.000285224528047034
6.7844700447619e-05
6.81980519751569e-05
0.000317487489328664
0.000225792605793513
5.86817775448713e-05
5.42277284340177e-05
4.35036866171016e-05
6.05021334497119e-05
0.000221345293607526
0.000171961387099481
5.49411331771561e-05
4.79358387266527e-05
0.000186136499725971
0.000182228631707544
4.86285402363716e-05
3.63514125292762e-05
0.000100591613924243
0.000113220603858332
4.83868818154437e-05
4.91451852874436e-05
0.000106638817162554
9.59537404173202e-05
5.1379928386892e-05
4.53248527164303e-05
8.07773398487483e-05
7.85363093448974e-05
4.09394066267567e-05
3.82061003941641e-05
8.16226705009471e-05
7.83952614836776e-05
3.84887738543243e-05
3.7143626977945e-05
6.93279156344792e-05
5.43339281982557e-05
3.54329559945148e-05
3.52504319770274e-05
4.48458266893907e-05
3.8335260545096e-05
3.32022197156071e-05
3.14898177130884e-05
3.4770064420594e-05
3.26840582464317e-05
2.94707138037267e-05
2.8899846978408e-05
3.1552994333754e-05
3.05493331616127e-05
2.74230978730914e-05
2.74632660607066e-05
3.01669502822031e-05
2.97017710051912e-05
2.62985355402479e-05
2.66027247862097e-05
2.97479138665843e-05
2.93366426335133e-05
2.65084705452416e-05
2.63042105459548e-05
2.88957825190348e-05
2.87234937592185e-05
2.73328659937227e-05
2.75774016389006e-05
2.95542519697331e-05
2.95174937191772e-05
2.73316075270945e-05
2.71079453728218e-05
2.88300134863543e-05
2.88823510986179e-05
2.70525807776182e-05
2.71073150536441e-05
2.92849833428353e-05
2.95341375821825e-05
2.63530531100745e-05
2.69655103922443e-05
2.90008576701738e-05
2.94226171982505e-05
2.75228470805073e-05
2.73260313493034e-05
2.98264779176585e-05
3.06061924380428e-05
2.8368532349384e-05
2.82238870251891e-05
3.09659118630863e-05
3.19433016445938e-05
2.98036458881441e-05
3.04866984558116e-05
3.31719042742086e-05
3.54275109978843e-05
3.25422219488202e-05
3.38556209209745e-05
3.90822930061959e-05
4.56572018850075e-05
3.61762127745753e-05
3.67802141790618e-05
5.55250882290696e-05
7.1466841308363e-05
3.8942939653743e-05
4.03795930207001e-05
8.08848405838085e-05
8.65576085145087e-05
3.99817212814406e-05
4.30226500933177e-05
7.9798216733725e-05
8.47097740818863e-05
4.5868619166275e-05
5.2324739973394e-05
0.000106636786241445
0.000117134671777957
5.31587448321923e-05
4.22920024134403e-05
9.54673393550655e-05
9.36324081227507e-05
3.26849604759362e-05
2.9408703106487e-05
0.000103052711167206
0.000101416108136825
2.53924432505424e-05
2.66245815048e-05
0.0001084950682994
0.000112572464860213
3.14121133574631e-05
3.91616032018934e-05
0.000108530401998954
0.000100838382968279
3.72451658437783e-05
3.25123503335316e-05
8.13137049384458e-05
8.06382120399957e-05
3.74697172047661e-05
3.16322686663502e-05
8.28481341502789e-05
8.07716319457771e-05
3.20523860203878e-05
3.11895355409763e-05
6.93323980318541e-05
5.48618550907415e-05
2.92802625593554e-05
2.89960800515319e-05
4.40110732120423e-05
3.71299470858758e-05
2.67708322575573e-05
2.61509684138235e-05
3.32792565315497e-05
3.07140917276838e-05
2.43091335313754e-05
2.416852685826e-05
2.93244936924467e-05
2.82371022398812e-05
2.26123832695002e-05
2.30079513850053e-05
2.78159670488556e-05
2.71515261657887e-05
2.20696109724857e-05
2.2432907612925e-05
2.68202580622982e-05
2.63602215071551e-05
2.19950187824792e-05
2.13833255805098e-05
2.67721516656006e-05
2.65470660558588e-05
2.19556262020161e-05
2.20986933909125e-05
2.61075913175288e-05
2.60663412108964e-05
2.21367015517229e-05
2.20431456660525e-05
2.66696150437644e-05
2.67303298966178e-05
2.22365106094281e-05
2.22941789386507e-05
2.61129922699246e-05
2.62699304013024e-05
2.14897860456962e-05
2.15840021129914e-05
2.65850379546965e-05
2.68964590157002e-05
2.16083786893216e-05
2.13337585749973e-05
2.69408215546601e-05
2.74080066636811e-05
2.24509764470501e-05
2.20902316948991e-05
2.78294666187942e-05
2.88434333455678e-05
2.34705840760474e-05
2.3581348901536e-05
3.01144960297023e-05
3.24839669533923e-05
2.54731696500089e-05
2.63486290956506e-05
3.62574575413235e-05
4.28179829099643e-05
2.82677448089645e-05
2.8229289378083e-05
5.3803107378197e-05
6.68996407288566e-05
2.98610782914032e-05
3.07895501690593e-05
7.78364588772362e-05
7.88130520563121e-05
3.03009424421946e-05
3.5960739076452e-05
7.99932488376551e-05
7.83193164139705e-05
3.24727455451778e-05
3.06094594593524e-05
8.12192397532045e-05
8.03928345215269e-05
2.63716359113835e-05
2.71221875553292e-05
6.95638847814633e-05
7.0202894891043e-05
2.65782742071088e-05
2.50125143366543e-05
5.32390738000774e-05
4.67318068798163e-05
2.52902117088026e-05
2.34776573545243e-05
3.58729747989608e-05
3.39570440606924e-05
2.32667640757005e-05
2.12840420267142e-05
2.99355829786164e-05
2.92353296435187e-05
2.16625353589625e-05
2.01228804773569e-05
2.76484175561491e-05
2.72469289275029e-05
2.08678216032388e-05
1.95619594491638e-05
2.64652921194059e-05
2.66913783012235e-05
1.99523963489392e-05
1.9956535963841e-05
2.62226807361232e-05
2.58294213117465e-05
1.98715377812498e-05
2.05959199889883e-05
2.54774333560976e-05
2.64287120820313e-05
2.04424327728476e-05
2.02900877342876e-05
2.64399939337352e-05
2.54312527043643e-05
2.05628914719113e-05
2.04909150033727e-05
2.55006629497965e-05
2.61073620275771e-05
2.02804087829845e-05
1.97229818589204e-05
2.62015810275047e-05
2.58029448920461e-05
2.0297041568454e-05
2.07838488865966e-05
2.65523795226207e-05
2.68283543455457e-05
2.02116189753232e-05