/*--------------------------------*- C++ -*----------------------------------*\
| =========                 |                                                 |
| \\      /  F ield         | OpenFOAM: The Open Source CFD Toolbox           |
|  \\    /   O peration     | Version:  2312                                  |
|   \\  /    A nd           | Website:  www.openfoam.com                      |
|    \\/     M anipulation  |                                                 |
\*---------------------------------------------------------------------------*/
FoamFile
{
    version     2.0;
    format      ascii;
    arch        "LSB;label=32;scalar=64";
    class       volScalarField;
    location    "1500";
    object      omega;
}
// * * * * * * * * * * * * * * * * * * * * * * * * * * * * * * * * * * * * * //

dimensions      [0 0 -1 0 0 0 0];

internalField   nonuniform List<scalar> 
162506
(
1.03451198043969
1.07662285533946
11.7856350821658
12.4495954430334
16.6335713972952
14.2585702922809
1.59027279153858
1.21832536189849
12.9040127696066
13.6380659243139
14.1861245367702
1.10881769003288
1.11131660826984
1.01921534808086
1.00297992428926
1.00607039684577
13.0955832777017
12.3548788774647
1.02202860840214
1.46606872336328
1.66572413796462
13.3401689923857
12.7729296109899
16.5121417526157
15.960693354342
14.2447932302064
14.3964001481823
1.00632422725479
11.814375624946
12.5091827036259
1.00241104177952
1.00026623310029
1.0019973331732
1.00002297254958
0.999894481234474
1.00379901157103
12.2940992933153
11.6840030571417
1.00902056485366
1.61901895267312
11.6729974571359
11.6196993859408
1.47102066839277
1.67965599532989
12.4313224350404
12.0560064881718
1.13996039569968
1.65959195690759
14.5181252339444
17.1148223910471
12.4965708998505
12.737702626115
17.8384607390343
14.9943021105446
1.81332462384199
1.52610728973796
13.6490022683594
13.153563921873
1.44843087154401
2.41221574924906
13.8170719306884
12.6470113496866
1.60132871086633
1.0332900016593
1.00676619583262
13.9019360175728
13.036124382851
11.6869158222711
12.0024580791888
1.00216329079939
1.00816420219973
1.00253203970669
1.00060266057441
1.00199224634064
1.00655248057941
1.00761014832076
1.12008339296961
1.31298962108395
1.84971909082991
11.988451976884
11.9532604345808
1.53239971163501
1.00559838214713
1.0017903216559
11.8114411989584
11.6054414449975
13.1762210441203
13.9108967841229
1.00388340785239
1.01000321309853
1.00011782603541
1.0001110102058
0.999955683715989
1.00000194088514
1.00047018913937
1.00002766094259
0.999912172865774
0.999839482188353
0.99986027035333
0.999923120467
0.999913062739761
1.00004745883033
1.00906673237657
11.6805825839139
12.289622273914
1.00372057198526
1.00227555038886
12.4965942624189
11.8041479466957
1.00619998381492
1.46887991490886
11.6100200310529
11.6697585274246
1.6185078076344
1.88056827529425
12.7244949710719
12.7292530871819
1.88180596870781
2.02042652914098
13.4199645481395
13.0096079279785
1.80743027159007
1.21735603023406
12.3969387373773
13.5338465649994
2.28593492133988
3.11166100813066
16.2309155937394
18.9490411757358
13.5103112562204
15.8230920120406
21.7773416250668
19.4480031311948
5.72828358103319
3.60465080565639
16.8257467200097
14.6522837980178
2.3357271350196
2.66058320537096
15.5961455564962
14.906528542969
2.43031562944234
2.66617880481848
14.6605836815186
13.5245929138666
2.52094074972558
1.83661078136313
13.2115017815728
15.2974364285381
3.1940553755858
2.07702433315754
13.2957415084245
13.6020685195844
1.88366916196371
1.01321995836543
1.00525586920283
14.9669423987083
13.9111835010873
12.8154071310514
13.6253564101281
1.00477212456367
1.01060954293684
0.999925175427006
0.999940217044258
0.999911644212788
0.999769582127569
0.999803017052886
0.999922051640967
0.999975913905135
0.999986254743856
1.0005047598614
1.00007371595727
1.00035608852124
1.00213515538314
1.0199588055152
1.00330943489414
1.00433218249414
13.0739494169728
12.3333042262627
1.01948378858384
1.07035649092343
11.7628798198848
12.0304695983243
1.13312003883836
1.67636320907257
12.4187726537071
12.9948432527846
1.80499843823898
2.01897081141022
13.4132757243367
14.6137029289611
2.73500887645524
2.74788417607645
14.6352643932045
14.1965462482722
2.60862225704246
4.38031519394969
17.4532088389922
16.5670889689089
4.19650371285721
4.86903239759103
19.8262548124835
20.3775632856502
7.56519422993167
8.23106828269291
22.4226001646355
24.5387246204778
7.94555032939661
5.94797599407253
22.6293722091376
24.4155475914236
6.83575911497636
8.93986399187169
32.1975058330937
38.3473242865741
11.0840331157893
12.3820367682156
34.4617020070268
37.3121815723388
54.1381029539833
32.001835342795
13.9694872070336
12.6386064714573
30.0771496011092
28.5537075199669
12.2445628593093
11.8792729985233
29.9721517539813
40.5646542744432
29.1483718850614
27.4414254173091
9.2052729542039
23.9757823213745
32.5244538471968
28.6462788980695
19.6722192383529
7.81893549626715
24.4908022497352
20.60686520298
6.08286809328817
4.32475083767774
18.8775308905282
16.6885262047339
3.19989874873289
2.95986492596132
16.0787433520758
15.2883811279632
2.7558237677402
2.0757050877918
14.8633723919923
14.153485402882
1.9835287013007
3.52580555641881
17.1323338861926
17.1379402845626
3.48581480627709
3.09091871777473
15.3369710474145
13.226377626434
1.69013560695609
1.32003255499648
12.4084188416696
12.4014253529863
1.32872109079894
1.01034394159521
12.8009993615464
13.6086987875433
1.00482128980267
0.999955124082786
1.00005124524371
1.00101021469454
1.00003227115564
1.00459149657718
1.01696326224516
13.8699302536166
14.9182942037356
13.855939600416
1.00534260749575
1.01138173924236
13.1299495592698
13.2725958612882
2.09852901227588
1.54314558185447
11.9440083616622
11.9906311130618
1.85635168986236
1.00790278111787
1.00225615602904
11.972540535555
11.6715594996337
11.5794549967461
11.7742794658853
1.00203034838398
1.00591014233118
13.0125232782327
1.03252482371791
1.00643527765916
13.8643168239328
14.1613283687824
1.10204447712233
1.10379127800112
13.4366362404026
12.7321862104686
1.31369737908234
2.01800111174773
12.5954319516072
16.0140905342716
13.5478550233198
13.2671853323932
13.7992790571082
1.16681153972555
1.15138154258876
13.1131163383408
13.4797177965259
15.410646065292
15.38053599242
14.4627942986923
17.0622308865803
12.4681535765468
2.09642241200051
1.55147445927822
13.1431947865486
13.6570877406049
1.65305224631692
2.26258038512061
12.7038607803544
17.7920612708293
14.9512368356144
16.2934162175545
18.9427578761073
13.6840745522003
3.75513001775822
2.36339495945249
13.5186572568455
14.1596722243589
2.59240208856116
4.35626964415277
17.2877620419091
17.8695756678603
4.46163660117347
4.48549443423687
17.9414417893247
25.4998617811991
7.22182363528092
9.75643138358941
36.5057832778801
44.8663854203324
11.2438591341863
10.8286434506429
43.1600911152558
52.0919686487393
16.2506568327945
16.1000778258918
46.9553862152244
40.6746193958909
15.5407491712247
13.9854011423391
34.4361645472923
56.5132646561261
41.2215538739605
43.8617586084382
54.5479292259492
36.0525765280914
15.0805059816679
12.9391239013965
34.7741596101376
32.4200976271153
12.8033171580299
12.0704381488195
33.9711875279736
32.0831959603576
10.4323056609878
8.9527833999639
26.6986637737424
23.8998275090834
6.92379629953854
6.4792114881895
23.8072472721859
21.7573975229425
5.7175224194318
3.67187223057335
17.6668657299536
16.8705697356881
2.62162673630201
2.19034391965693
15.6088467240424
19.5022696170193
3.86919317107363
3.73974904332891
18.3531725707558
18.3337651026866
3.74553959077698
2.04823271245
14.8214524196626
14.0847841209683
1.91174466037107
1.91592885801515
14.079362847846
13.2250049751401
1.69043226264733
3.10442813280227
15.3372085383503
13.5831059797012
1.91021903807656
1.25922688819485
1.0012880088066
1.01041977825545
1.01817120631281
1.0008197297414
1.00030751994422
1.00016538115569
1.30022708323642
1.11919424939814
1.35729722486674
3.2176145780514
15.2979870316718
13.2092302168292
1.84654200212539
2.52976468869341
13.5313944321351
13.8231919784743
2.43046072188578
2.47206568314287
14.9296653657257
15.6585122987168
2.76006066275443
2.55229746881461
14.7300964806814
17.168557842738
4.02697046598537
6.29873653991622
16.4061728191984
21.8708698068504
19.6319319481612
25.0733416849381
28.8459042259337
20.9199077445102
8.65679449575632
8.15125045508442
21.0107189147576
19.7414941940984
4.89569851870509
5.97746895940493
22.1123551051669
24.7820730698824
8.62717957677294
8.89706433711201
23.5316463457171
26.0070163787223
10.0167314256435
29.168699107888
33.5296804411744
43.4680030359808
32.4679386488237
13.5294227660714
32.8248441917195
34.4755954792625
14.8065814770941
15.9709992408063
39.0586990490098
39.4440787253867
57.6531604598426
41.1131716846557
17.516540613887
14.9900267507119
36.2257972347811
38.1869661120446
13.0361385892553
11.8962996888144
42.5460347675411
44.1945759851349
11.7012759601665
11.3352320888925
45.0372898496202
45.3480749032608
11.2929132534873
17.4203274801807
54.1898564549217
54.0371413383344
17.2446264111774
23.3489472483751
71.4079918300835
70.0012327345123
22.3446825230169
21.5128127443492
67.1427092712372
62.6352362884642
20.6828769223725
18.4592613904623
57.2292674891328
50.6729298254463
18.5464163990025
20.9521302224051
59.5347719121847
47.0135788421431
56.014045062678
37.8577483673357
15.9107926857918
13.1899244516641
36.4489860222843
40.2648919353509
12.353983552892
11.2925164084617
38.4664212732781
36.0894991411972
11.1352970316774
8.2656185762476
30.4490102812221
27.8445400209216
7.59305975280956
5.11681936107402
3.31856212400898
1.67695894617354
1.78023794346157
2.2930027225699
4.54839096049033
23.4465154058919
22.5422327893093
4.70014047289291
4.45783403547401
24.4092568630203
26.6804733625211
4.93949649753145
4.90121130500672
26.0805942567135
28.2894939474299
7.4879689749685
7.2371447385187
29.0031064079889
30.3148427154727
7.14968443860425
8.75551392328375
33.1838375550392
30.6037141013191
9.06132790276875
7.05128347910451
27.3166892797592
4.74707810659986
9.43926555083849
30.5868991853941
38.1763228284848
11.7933165495288
11.1791629568629
37.049071073965
31.2546675736694
7.74487945743463
4.84598983893761
25.412615677785
25.6192685366876
4.79476279701179
4.82563430905142
24.6199920214751
22.5845771778697
4.69210359119404
3.97864851680211
20.6809677656302
20.6445249113514
4.00331917647523
3.88740541297129
19.46833088149
15.5074321082248
2.12247024780425
2.1294775394114
15.4929357484385
14.8127189173566
2.05690828698874
3.76001615993563
18.3120067318241
17.1300902594334
3.50282626066375
3.5383439661997
17.1283023974497
14.1431000366036
1.99326079284172
2.67845218586227
14.6655904086274
15.2818614241849
2.75806934531783
2.94220563234013
16.0348083644508
16.9463083751657
3.51370675863192
4.7452975547601
19.4353703301431
21.5864613868007
6.78875912630771
10.0436102875799
28.8417653980971
31.7879983411174
13.5132055118659
15.0204559154035
40.8202320981967
43.2491624025632
16.797213176926
16.4157274029898
42.38177811336
47.1531247310456
20.7875417928236
20.8368387709636
49.8184802112262
47.5357574151467
18.0412515326727
19.651108712012
52.3307801809615
61.8651815139802
85.411833417864
76.2922971692346
27.9273070827104
30.6900962652689
78.2893724478676
71.3669060852688
28.6165177457285
23.7696409813276
68.0228179691193
85.5398671292204
55.5441667534784
49.1746437878046
73.4747468785576
53.4717910463882
23.5459460100169
21.6423769224279
48.6658850397511
49.28306280414
19.1601300467656
17.6701728557999
52.2891491946717
53.3299986221317
17.7649744934839
17.5235004363291
53.8435654933075
70.4460175475422
24.217160901507
24.3452870533228
70.8188126593972
71.1282264100441
23.7024789836317
23.8435769820382
71.1739207116365
96.3630986822353
34.5803861334384
33.8794481990283
97.0487017057161
95.7653461878997
32.5658670401531
30.6830374456054
90.7236116271917
79.0961649608517
26.2233805331702
20.5290541905259
66.0003975683994
73.8014017481424
22.946354500444
23.3489349032951
80.7365723760131
83.7866713515387
24.3299918121693
22.0939266355554
65.3061653762245
49.3644413998143
58.1641069922907
39.2757926179549
16.6798734940621
13.4824519942254
37.8997090588558
42.2949163333139
12.6093767172438
11.4101415354073
40.3310281734479
34.3251943987383
9.19887277619005
8.64912482254755
32.8792899787775
5.82420735827234
4.05712855703997
3.84285712046401
4.60334938714287
2.65920477671475
2.29882666276954
2.06315001513083
2.228592770807
1.45131356891846
1.27249968257295
2.34865268243257
17.5293062352447
16.8676938651802
2.23263974308848
2.16979853583491
16.1810384163002
16.1472527544812
2.15324917124735
3.97512822845324
20.4910553711926
19.4159803452331
3.90509573819505
3.82423498095123
19.4295306164893
15.531252510758
2.18300927879873
2.89738601935055
17.1087341965862
18.0302853213893
4.05209707149295
6.48933489076052
23.3511757540986
25.7298497289801
7.96640419043301
7.66114038527147
25.665165146313
30.3760484885288
8.71354523040672
11.6669239138807
35.3628500719529
40.2742978871447
11.9820512296981
16.3074076201519
48.3624005731752
56.2100435010331
18.9528331143993
29.3447117605157
83.4765841012171
96.8268047746348
67.1669876584864
65.9370509069503
95.611549622463
90.4608698203755
30.6101296751016
36.3414132088058
105.460792150084
106.087911663518
42.1751316549174
41.2239565681508
107.557414011951
131.39675618846
46.1217361690961
53.163004805891
147.585565027826
142.413955986218
50.870830825839
51.99435423781
141.385780611949
143.798145602622
52.5128995717988
52.3939528411124
143.92732035087
145.019038212795
52.3334462337886
52.5701369937016
145.251024928335
145.557075926362
52.7645174518819
52.080203244917
146.106403284484
146.239695201999
51.5399253511763
50.2747195703866
148.137591183376
151.469517628121
50.3422616326197
41.4335567451645
131.417004810176
96.5424709286532
30.6196631985219
32.1086621466865
108.313015157464
113.731967401
33.8240225874363
36.1194340409528
120.508577590108
86.613309814533
24.7221574683573
25.9836040405436
90.2437057028144
69.900609480408
23.1940160533704
17.3754914159175
40.7938985849165
61.4850038728907
51.7824391343371
54.4748490834979
65.6014004520568
42.8252901407638
17.8984020339216
14.289015510046
41.4653713991328
39.4150163758738
13.7622366227015
12.9693133984045
44.3946783301013
42.2869957429975
11.5911505725327
9.43667606404364
36.3331927112905
36.5977308942262
10.6975780690869
10.3442386134433
33.8866661633371
5.72113969885439
6.361220203677
4.98216278876738
2.31400042056508
2.48117862210136
2.20186223619877
4.32151792550039
24.3355306823401
23.2235301855021
4.20937145613423
4.1315165870996
21.9532281059671
1.91441589761278
1.1620044186532
1.14771749050373
2.21397986429146
16.7715869635742
21.5703583761981
4.02313135299567
4.03204166692127
21.7662223328614
19.7543286142632
3.56331433056881
4.47952930790938
23.104334353922
28.042734186232
6.95382132848457
8.82405077442373
33.164781744631
33.8774049244975
10.5075658593448
9.04020070447001
31.3622143780724
33.1523608884097
9.31360945546737
9.79472293718218
35.5301182499547
43.026816170729
12.5335821176879
17.3009094241564
52.314130654899
55.2909025379173
19.3624459300116
19.5949599358765
57.3790599149919
67.0145309563097
97.107943136218
95.2688294011155
31.6823984849975
37.9082821306342
113.882537669802
127.134845156469
48.1593425795143
53.8969796537338
146.721623322324
192.673343385452
59.6761895957004
65.8927369018245
258.227481736424
295.103022147823
66.8620088535799
70.6870139167967
283.721887497908
277.24336037979
68.4138763129081
70.4939747424715
277.803751473189
276.993956512459
70.9466973847513
73.6739582107896
280.32034844955
284.991055919781
72.8814308577142
72.5333207395119
286.320874024362
286.233822230054
70.9613750825837
73.74465668419
287.303911091867
289.91089069569
72.8931220588346
71.751162628216
290.095043894057
290.145597092863
72.6996035640778
73.3845716265964
289.762104404382
289.25931592797
74.7122026876605
72.0992979566665
288.056815488148
288.426481219363
72.8326695876257
72.4639940553227
286.616758319579
284.159701306647
73.0836922726534
70.4383291761057
281.25851562561
282.263435974661
69.6554799660536
67.085485317463
281.871307305846
287.209146379331
67.8228608866852
63.7561076136363
298.841163143447
259.128273685023
62.4467067364361
61.9928610589406
247.733652345706
238.770237489717
66.3046227592747
64.9452711018397
232.989442147333
230.223897507066
67.3480337315407
67.0318543112185
227.438171778693
227.75720270614
69.728578106856
68.7140952202966
228.149182700812
228.375118025058
69.6244391276528
68.4442780920755
227.495970560282
227.750398545025
70.3238502777182
69.3420306704273
227.562749331614
227.720068685959
68.916167270679
68.2714749010274
227.469110241334
227.230287691687
68.8023508959738
69.2238947760133
225.631491657307
225.169998138031
67.6423160182781
69.2652012092535
225.510136893573
224.944629917658
69.0343960091472
69.8464162222351
221.688481938475
220.501302262527
67.170321032885
67.7227515565419
222.219996211544
224.421453222678
65.7293760393665
68.8752874628524
230.97384555276
242.15726268831
65.1557529389534
66.3914900604794
36.5789855083458
23.9408769667985
13.2989234537833
10.5587307712967
7.12120058717018
6.01112690741745
3.57315123381399
2.80096272466899
2.46878877551448
1.85860270071412
1.80231431722573
4.13579661532095
22.6569602274545
23.3843137191146
4.32676357743784
4.54526564369021
24.9493510967802
25.118826411867
5.06182385671476
6.7669435476304
32.4938833609497
30.9133808790535
6.54156384752546
9.70638077095531
38.6438229145471
39.9234725603144
11.5086425446665
9.66681405541956
34.4531298644473
36.6067095289777
10.0070788661298
10.3536272233482
37.3057122338005
45.293438588932
13.4490869870138
19.0724327769188
57.7642069972808
62.8683497779299
21.2160826076265
34.9882004748492
75.5392128357893
105.863744957563
95.3249599013688
123.21599551727
39.7013609148961
50.1070815370366
144.620998579512
191.964905871089
56.9160657187317
72.4686850395629
290.988468541346
333.519294424579
73.3957866888848
73.9643363010422
314.918499022595
298.787649509248
71.3043756875201
77.1323059079448
292.088039117032
288.668670595777
77.977839042575
82.2360973421162
294.695605385594
299.828932375384
87.0193033561065
92.3359269208809
305.728045162527
309.68789515762
95.2392340957486
98.8403645749971
310.507656256999
310.963917607815
101.324978891596
108.604041337713
312.920356505427
316.480940075157
107.269509059855
106.283699829367
316.211094647981
315.773935226852
108.026972264685
106.328909367433
315.350210096412
314.053454666958
106.454784421731
99.9891004085395
312.238140336614
311.954999559596
95.2448743021206
90.9005792379729
309.68893951805
305.094796995422
87.7849034774618
83.4340897700971
297.839340415412
290.37477994015
79.07607681672
74.3694079866884
285.14736318179
294.74635282833
72.8058191155813
67.9429184402661
311.169883755107
256.589144711601
59.2947987843079
57.6941168501185
251.845413970493
165.967634437363
44.0731589097434
47.2777058871318
174.47895890681
189.65108750943
50.5121941053943
53.9141755580945
212.504874290942
129.260480062561
38.3947982371728
40.6191229734466
140.933785845535
93.5890466607778
26.2735239855951
27.326210652157
98.501497579247
75.208243725383
24.0920931971
24.610019541253
80.7154013543049
59.0911427639647
73.2853764816521
48.9248160431752
21.0584981813864
17.1519616670764
48.0447174683827
51.6549710899057
16.1189242336902
13.4817925322954
48.5273727316171
44.4206910314706
11.8033525335472
9.65104894767805
38.164015609206
38.5776503315832
10.7731570715371
12.2295861798969
45.7242700126826
43.2678140624317
12.2542054969126
11.3732851477181
42.1429585123832
33.3179056547966
7.09948264598053
7.11475572099621
34.2657551875167
28.4590450384167
5.77125442064021
6.21815970900594
28.4569890407596
25.6360784589165
4.48404414648537
2.57634356492454
18.875097644738
18.142853432213
2.48994882461884
2.50551841881484
17.995667583319
17.3751059536634
2.34166509202985
1.2791443323969
1.47435375964729
2.00337981170722
4.31547891535574
23.7983362232905
25.3020473722939
4.58832102443268
6.27791658564538
28.1432266025085
28.3050552606454
6.16207263864189
6.64562984964231
34.3885824397416
33.4314974041515
6.50631324224287
10.1152020493007
43.6771931336903
41.6939634425661
9.94522331298804
11.7480797621914
43.0870768062824
45.4258534810776
11.870584965199
10.2939264132524
38.2789056753952
38.918472860169
10.8273440358301
14.3196332214675
47.6417633944635
62.7652313192488
20.1227511107605
22.1192596234884
71.3769647579355
90.4911746998517
125.807543573923
101.561195278346
37.2958341286302
42.8295412891005
144.562202603715
173.322633645038
54.3105754228964
63.1301826894875
237.046205699636
343.576382317882
73.6321291011825
93.415964292594
452.27791087478
422.300873645035
96.0211900608209
106.306785352954
424.999026828503
504.40620204108
133.473583815417
169.896513021656
641.666635238334
799.926489020307
201.953029964416
215.621071614832
845.582892811605
860.049375831218
225.884969621611
240.993062594741
863.384960079422
867.348991770187
262.738164751808
284.750865887367
865.520877353172
863.965960741959
304.452716585408
318.94518585654
858.034564231163
856.446778634296
331.68351543688
340.503129400796
850.34260882932
851.23251856807
349.596519151925
354.814288455649
848.061712355818
852.228289233701
361.994951539363
369.897468874042
852.659459287517
858.427360488737
377.921115260822
376.914896109001
866.959419504605
869.922064133135
371.504170961992
368.907016348692
865.882228994705
864.097591463809
376.357381702218
380.3546624986
863.745949925568
861.800367889219
373.261881942307
371.961320205507
865.686003841647
862.313410676915
370.233149845474
369.346680333373
864.823330818514
861.363224589919
361.107417715012
352.646497326067
863.024789145138
861.081479538989
342.868382253821
332.760161552873
866.236094922826
867.354833534572
318.868403149771
303.358726533122
874.700328087682
877.174176840124
283.119246662565
262.742888068526
881.526682408448
879.531589046659
242.649188295292
228.637042112461
876.445452656128
860.262680404102
218.177836551237
203.122939892665
810.543790392634
646.162323016016
170.896155531973
136.127480033647
518.068246309241
458.931419574161
111.20469517087
93.6522121382284
459.01047574863
325.536882017226
67.2735548500417
63.2490227744171
298.849244004778
281.399320553028
61.7017346516009
58.9745041579936
265.332986503974
335.542414773854
71.2448552711683
77.9787830559277
367.134678644738
408.034208540871
84.1358096319296
100.081118307904
400.15256152767
434.922626401507
121.885723356495
161.081798879424
586.825170837652
704.633153059928
194.59493651451
207.491677092399
741.569287244474
755.92800573107
216.697696506432
224.630494451288
762.006163403965
768.145724049875
239.818451204902
255.759574630238
765.842412575017
767.75760824218
273.539830146698
287.69380600133
761.945173696778
764.090425417637
300.990811902295
310.67146764431
759.296535195055
762.969566213541
320.201632865039
328.008877024021
761.47905102319
765.500912920758
336.133943129667
337.051701978271
764.221371345527
767.139594046017
339.696193162455
340.69967812292
764.00485389457
765.962258168339
347.143930165568
343.210580455868
766.514934658166
767.183414300595
337.252934074527
339.622813346267
770.376152382931
768.585002926358
343.379818808296
344.291924581825
760.658134256341
756.1805858597
337.097833039747
329.429040961668
755.189006649502
751.010189002983
322.416714537101
317.532647046835
753.973588082555
751.145291960085
308.360232357634
300.207779340745
756.699766625572
755.019489274914
288.017535175052
274.738171991182
759.387178677277
756.978391041927
257.495052146549
239.540013599422
756.870710733903
749.561830583883
222.735776763499
213.85526767767
743.68360840181
730.286323371858
205.054284790563
192.96016866931
696.141192584308
582.169180948353
159.984353169972
118.49433362976
425.993181617179
482.777374911654
148.176074546161
174.346182552698
546.395156373565
567.41236255708
184.62381183686
192.571781981856
578.301474188811
582.340402074692
199.675346453334
212.119665645626
589.194425937163
589.402849463256
226.109308374196
237.862937070944
594.60065502888
591.848327939757
248.691626066881
258.615482100091
595.708540999497
591.126599642673
265.746129415185
274.088791130599
594.745513655448
592.411481836084
278.618881324281
284.66356158205
595.785652071626
597.178536858944
292.14329146886
298.019657861176
599.918291759114
606.499598638453
297.140527972472
295.249855119109
607.523852405085
605.272476301628
293.155778499137
296.948078976509
605.121618484507
604.502438655162
300.597782428079
295.792617605954
603.127161796324
605.312283280689
295.05029905931
291.5809102325
603.053729758036
603.325378589372
290.855337958594
283.513644439536
599.789582853506
600.873927971176
276.422921458303
268.211510913435
596.613211863303
600.622238386199
259.433981358169
248.614214292835
596.270554841152
600.398101531079
237.17581223903
224.748113505757
595.049151941361
597.13398291307
212.770612906393
201.144359832085
590.581056856061
586.295715930593
195.125344223146
186.933570058338
575.443536521921
553.554713503235
176.312123238944
149.404934057182
487.67647160871
400.18187305873
127.705103942407
99.8888425130015
355.208487949662
353.715993919858
88.392238202955
79.0812966452168
319.187793221316
311.022362734355
82.9704914614926
90.5614945987271
321.73978816939
334.064367070038
96.7169881823093
141.386572949564
426.43149400948
436.065514523891
152.72237005731
170.446935656129
438.687662135636
439.418360583331
189.437943274806
205.846789536308
439.474668616628
441.57141792062
219.104815840848
224.231098045476
443.52951336616
443.535658812641
228.49950635258
226.16126637086
444.520914081986
445.594864697268
227.012821505454
226.355233258605
439.639113513313
436.419951089587
214.398331012792
203.761036952528
435.654729427804
436.115269425873
189.464386832489
171.816212177891
434.525586731763
429.802064107026
152.695666829358
139.745143089614
420.271793724806
396.043074942884
125.668631806684
97.697350578233
351.493856013844
332.915859239672
82.6472588503256
94.6430708765869
372.415063471842
375.987994477354
87.748676641362
84.7523744095393
403.162287766849
315.6914395914
70.6641351315544
60.0969198631685
208.495011008592
298.665344964942
70.7139464534363
79.4080869555219
365.480711412719
341.513098286504
80.2610599659041
76.0737906127111
321.631303701982
309.996057955175
75.6071816875077
83.0322229636941
313.657855461989
319.557210392322
89.0307685913926
95.2710381918067
329.370345620966
335.595733722835
103.422430505032
115.325634728331
338.842229953885
339.793129374743
125.731017262302
134.833117471244
339.144006061031
339.078116001183
141.688001674112
151.271276606068
341.213217502384
344.940310632185
151.194547456873
150.508233571803
344.497084919724
343.922963582727
152.198554823302
149.09525534927
343.530129298668
342.651839437561
146.365325482883
136.57910767341
341.477369388089
342.414041552907
125.66751611077
113.830834102201
342.454555341923
341.185105687116
103.405220992018
99.9845101393805
84.3898398681684
80.5493949709199
75.8663999895127
72.9278267278633
63.012692284566
59.6701864922714
55.5581743587111
53.4063615657479
43.9981336743721
41.9540752916441
38.1384054820144
36.7233896994236
34.0674197634934
32.3807294301947
30.5860163763049
29.2860086793422
27.1766378226468
25.4694200411077
23.5523286590669
21.915455775604
20.1250092560009
18.3400636443455
16.3067139051583
14.693288909871
10.275896933855
11.5545246254766
9.23460534095704
5.8846900155787
2.86573048364555
2.0319754284195
1.42541781333302
1.54004234112297
1.62315416199629
2.63625440053665
18.7887961317969
20.7416650191671
3.89652608775672
6.8127475171982
28.9048781521276
37.5528789083632
10.8097676318344
8.29731187182263
36.1597677538426
36.9701065814859
7.00243574270658
6.57114772161624
35.3627465127915
47.4441441179395
10.1398618623917
10.2162199062485
45.6470990043123
47.7108104004906
11.9669732821552
11.3673742931461
40.9905107134975
42.1372821177905
12.2111254449703
15.0313236526279
51.2868774200624
67.7518838139838
20.8211627749186
22.7216915815638
77.3082061216371
100.152261344746
144.752675757112
114.973012588272
39.0424696974389
45.1681364536791
172.72116930726
223.781361529742
58.5460088008714
69.3305439400681
362.271537976287
552.915249286732
84.803583215816
139.824526273873
826.368446796229
775.676151041571
141.665377772994
170.606929377723
836.497017145659
1113.50810018065
216.596936252312
295.757842043566
1601.16774907387
2127.92948093213
401.762431374611
436.845589723518
2237.81750463584
2240.99164495951
436.954453512286
444.210910354153
2196.91713135283
2125.72928382988
461.443588549374
481.393057082212
2080.17169112287
2111.14400614948
471.728650570175
442.717914874926
2160.25511316284
2195.04935307898
416.314229629007
408.738585285338
2219.94427876857
2226.25109633427
405.381750147731
409.156357077591
2231.66056132014
2233.98305697658
408.682799996875
411.287178083762
2226.50896875069
2242.02292416106
417.322764591971
416.272997622315
2247.84978014167
2275.04808540107
416.636806224808
412.821592466063
2265.81708895596
2245.12570090282
413.12422334044
416.936960351263
2247.09985338272
2248.45766328178
413.846155371181
415.542275085266
2258.75032053741
2244.95164958356
415.5405172881
415.525727527949
2255.28428803707
2258.80709821926
413.900973912849
410.119565985736
2254.38714807288
2246.52604399725
412.244076547037
418.99194580593
2220.98003500711
2185.96333863922
444.477971084678
475.134958887686
2141.6831802979
2115.77403773485
485.400807433205
468.113529378569
2166.04604773761
2239.51471605149
455.785125200698
453.993876820287
2283.62718215152
2274.61816319048
454.409724156892
411.131995677946
2151.1741516765
1606.70033771364
297.84580598827
217.426346556342
1146.76217506573
907.949191630857
168.911015503127
144.371817180013
843.004154107357
524.356644371038
83.0698507031576
76.7156474033637
448.799213679988
401.032775763036
74.586795906666
69.4325215098957
353.859007719252
529.286111934823
101.315504253542
114.200438353333
620.610693746892
726.712842197645
125.584971412548
149.984003634513
765.897205612455
942.761203366476
186.817565362986
267.532587190651