/*--------------------------------*- C++ -*----------------------------------*\
| =========                 |                                                 |
| \\      /  F ield         | OpenFOAM: The Open Source CFD Toolbox           |
|  \\    /   O peration     | Version:  2312                                  |
|   \\  /    A nd           | Website:  www.openfoam.com                      |
|    \\/     M anipulation  |                                                 |
\*---------------------------------------------------------------------------*/
FoamFile
{
    version     2.0;
    format      ascii;
    arch        "LSB;label=32;scalar=64";
    class       volScalarField;
    location    "1600";
    object      k;
}
// * * * * * * * * * * * * * * * * * * * * * * * * * * * * * * * * * * * * * //

dimensions      [0 2 -2 0 0 0 0];

internalField   nonuniform List<scalar> 
207032
(
0.0157618519280375
0.0167960724764398
0.0219874710439018
0.0209310574885287
0.0164763370623675
0.0163987288138024
0.0205332313922298
0.019879794514179
0.0195109769612131
0.0156667891009014
0.0160019461281716
0.0154894887797421
0.0153165064667214
0.015381175023863
0.0155489851699379
0.0161353764029421
0.020721607001371
0.0205280740839059
0.0157371507162562
0.0158301985571742
0.0218652857498364
0.021808861913061
0.016293864055826
0.0156319348413966
0.0154429363955981
0.0155155779991939
0.015727924488089
0.0165270677215581
0.0229434399285674
0.0230973407367528
0.0159823759132165
0.0168292558286493
0.0242154033996793
0.0240202268405793
0.0173593873326481
0.0173437653361711
0.0247592486427182
0.0233477152106786
0.016933741232852
0.0170333679463364
0.0230868510410768
0.0223086897232893
0.0170934920350457
0.016963403944384
0.0207072937972778
0.019400343866168
0.0165805568528784
0.0160013991847878
0.0184433211841772
0.0170955691708811
0.0154593819689122
0.0151585880207657
0.0163352311480847
0.0157529013243304
0.0153139956466733
0.0150257862323581
0.0150622560432019
0.0150487552722333
0.0150141978987683
0.0150104695118555
0.0150068869410018
0.0150209044293729
0.0150425433546257
0.0150806556577286
0.0150462797496989
0.0151573876050734
0.016377470567427
0.0164072603449107
0.015173339779817
0.0150558111994757
0.0150424544047092
0.0156348907407495
0.0157167443679741
0.0153049614890367
0.0153151788575629
0.0150205611025933
0.015022094784919
0.0153518033740077
0.0171368296102489
0.0170256864407718
0.0152768210185915
0.0150893094131428
0.015144246617987
0.0151583868633902
0.0150978048553001
0.0153752318117783
0.0156016227277971
0.0156201827778323
0.0153897524209862
0.015267067893446
0.0154094377406303
0.0151770188643174
0.01511121624896
0.0150777573719936
0.0151146504714264
0.0151933302949604
0.0151284974724574
0.0151791642911556
0.0152431271450373
0.0152884243257804
0.0152323466903419
0.0152892019121693
0.0153558886269132
0.0154807511641023
0.015362802172089
0.0156932479356534
0.0159885149060191
0.016354892344784
0.016106412920277
0.0174187687458193
0.0256699107629001
0.0253538309583142
0.0178641934820028
0.0180154432601873
0.0259586796871296
0.0252794993670577
0.0175775298030598
0.0178953434903109
0.0261739703406013
0.0269914707363701
0.0181225502180511
0.0182586189842652
0.0265712023523221
0.0268055321642427
0.0184032913890189
0.0181343943499213
0.0273410215218589
0.030087161776131
0.0195042311159198
0.0192227003113623
0.0290578952512873
0.0285362621110399
0.0185520542096497
0.0183660576300053
0.0303874874926375
0.0293154021821024
0.0176893253517686
0.0172660419400641
0.0263662588386996
0.0242387076774917
0.0171395084941029
0.0167650080275166
0.0232766781526039
0.0217034916413945
0.0166906883923017
0.0165092366380519
0.0203857726751079
0.0191282925266111
0.0161765291464944
0.016438026288709
0.0202472504919269
0.0181784135929852
0.0158001055126853
0.0154920553183413
0.0171666841660305
0.016404498365168
0.0152255698644531
0.0150576685143368
0.0150234707416601
0.0153197462530594
0.0158162703801334
0.0158129969954512
0.015285012598789
0.0150104150568144
0.015032220982344
0.015018587228077
0.0150071935831809
0.0150120212970045
0.0150339956090106
0.0150384847719181
0.0151231381670484
0.0150924514738968
0.015178901362543
0.0163975821267548
0.0164203132757158
0.0151142064117984
0.0150151791404199
0.0150033151814594
0.0152869459709846
0.0158169613155914
0.0159095668584809
0.0153427516684906
0.0150009885209531
0.0150115651526946
0.0150062940407591
0.0150037263061935
0.0150018060443204
0.0150037384565726
0.0150080278935148
0.0150030740213149
0.0150046860640571
0.0150159530364067
0.0150104662184229
0.015004049025237
0.0150026495698465
0.0150036567932853
0.0150007381695002
0.0150004764768558
0.0150010945550332
0.0150024442751597
0.0150057201743356
0.0150025105554404
0.0150068435537992
0.0150179854953112
0.0150590002069298
0.0150298030778865
0.0150142095954621
0.0150235669582563
0.0150649432675706
0.0150467814205171
0.0150709265241773
0.0150885235020957
0.0151206182255069
0.0151056233450958
0.0151421703246344
0.0151758062663464
0.0152163669036801
0.015181617871058
0.0152268433196653
0.0152625162423442
0.0152782139624667
0.0152419084982888
0.015298611227528
0.0153510452080167
0.0153703808030559
0.0153170740049906
0.0154556615139445
0.0155962817543303
0.0156361368884243
0.0155169622074626
0.016164451601801
0.0163874419439112
0.0163731915333542
0.0161633324372442
0.017979410456493
0.0181428415253308
0.0182727114210759
0.0183028178924064
0.018126527232569
0.0181068415388274
0.0192369862016425
0.0306313661842531
0.031571763746905
0.0194713525395956
0.0196235106545718
0.0350516366437253
0.0332706417817114
0.0194316221854119
0.0186552855739069
0.0320874676183523
0.0304291827642118
0.0185418477324171
0.0166982683387458
0.016086780687563
0.0159316174749665
0.0158923560206777
0.015839453220807
0.0159637446048047
0.0159728710964959
0.0162828666605154
0.0256617227247245
0.0242209167053245
0.0161990192660821
0.0161532094871405
0.0229097586094435
0.0216679966463854
0.0161313429677099
0.0160857310074225
0.0203386851857553
0.0203442755743173
0.0160671582689907
0.0161552524689751
0.0196495714490109
0.0181937136583088
0.0156976030450337
0.0153847325911423
0.0171657349012484
0.0171908858169972
0.0152429452555249
0.0153714583520802
0.0174192906167346
0.0165754958810639
0.015158584020492
0.0151338699119464
0.0166614176596682
0.0159604057001469
0.0153731550730052
0.015003260201547
0.0150099517140928
0.0150065982358538
0.0150029626104496
0.0150016707649877
0.0150036748011409
0.0150037638591561
0.0150016595183467
0.0150016149759553
0.0150041387970322
0.0150047224475074
0.0150015625203389
0.0150008239678286
0.0150043747488108
0.0150023097469195
0.0150016673819639
0.014999666174783
0.0149997681441531
0.0149995449115973
0.0149989935156971
0.0150016581908735
0.0150044039663828
0.015018565926384
0.0150103588361587
0.0150073454870444
0.015009729909636
0.0150310818136918
0.0150222669375945
0.0150568362699131
0.0150749226221138
0.015094677424461
0.01508080311123
0.0151133700054035
0.0151234756927777
0.0151130368217816
0.0151019964687833
0.0151351113779363
0.0151451995595088
0.0151560010607197
0.0151407035222396
0.0151752183203662
0.015189243587445
0.0152077480859541
0.0151928529732788
0.0152438485220474
0.0152787464256477
0.0153000832949901
0.0152656751531458
0.0152857899172262
0.0153200026936425
0.0153398033442473
0.0153059463239653
0.0153687504483556
0.0154296372562059
0.0154495162965208
0.0153906531576876
0.0154802271709479
0.0156067190269279
0.015620330056716
0.0155045424572742
0.0155563875370759
0.0156608372247028
0.016427458082974
0.016230234693951
0.0162192408671349
0.0164117427587573
0.0165623363103254
0.0163921243929572
0.018235811510268
0.018192337469046
0.0186360375696614
0.0187409294097822
0.0208595256831601
0.0200684974506252
0.0356803500446373
0.0379103676031706
0.0429864411831367
0.0392387764848447
0.0201299625846241
0.021475748874802
0.0189334749379758
0.0193192824577105
0.0193256947275518
0.0189613036268009
0.0214002797411216
0.0202304491626752
0.0419542482981743
0.0457982663170421
0.0440552939214254
0.0208648976345937
0.0201139831294413
0.041703651770729
0.0432962462079245
0.0201300881738278
0.0202108093482451
0.0436423593811459
0.0390551645828441
0.020221963710294
0.0202294793492466
0.0398079510142239
0.0363992216266344
0.0202194139788527
0.0193891916629747
0.0360044877404701
0.0339081144081239
0.0190330751183357
0.0197334360260851
0.0340818131847397
0.0339237827141013
0.0195487942189808
0.0179941386608891
0.0298294459490814
0.027277060118042
0.0172356706010627
0.0168619435930203
0.0250485152986713
0.0244710648077788
0.0166556149123733
0.0166294733999374
0.0228750278518258
0.0214099837227929
0.0165941567663427
0.0165767640214441
0.0214819163793034
0.0223921183878998
0.0164451540966822
0.0163365884556402
0.0205617370716619
0.0220309210826608
0.0163449505485644
0.0161344555899546
0.0215266494075939
0.022820110185637
0.016154183245337
0.0161792459761967
0.0243328429182121
0.0260459923916328
0.016236842117956
0.0163100095196949
0.0280188350416518
0.0270684916828203
0.0166807503760478
0.017863100443788
0.0286575854175969
0.0252426126969705
0.0162154172588866
0.0161011651937682
0.0226497289008374
0.0202099375235481
0.0160350376790908
0.0156185146828168
0.0185569666743174
0.0186634312494203
0.015450717533802
0.0153333133493681
0.0175281680129198
0.0173192924642981
0.0151288150611388
0.0150602026740266
0.0165549525203056
0.0159013137301124
0.01534073171979
0.0150016305860724
0.0150071236244527
0.0150113475782628
0.0150025720113194
0.0153398149590655
0.0158978746929986
0.0165496889503773
0.0150680910044708
0.0151451677252096
0.0166561653530123
0.015957053969825
0.0153704870292634
0.0150047500229139
0.0150090277727161
0.0150087974933572
0.015003373474716
0.0150028009361123
0.0150062379837223
0.0150048422497792
0.0150018095148333
0.01500157144387
0.0150051301405313
0.0150066314586855
0.0150016979611179
0.0150014136449979
0.01501155371894
0.0150434244335233
0.0150089163453406
0.0150050088400889
0.0150021642917842
0.0150179716101996
0.0150368795731626
0.0150769409433554
0.0150453953098383
0.0151035644914119
0.0151683986934585
0.0150694876393726
0.0150395005200542
0.0150895335053026
0.0151295111520668
0.0151549631444677
0.0151197301524886
0.015159830039391
0.0151945547935983
0.0151316994929183
0.0151184432209254
0.015153757381159
0.0151664345316663
0.0151556815013696
0.0151466383801447
0.0151776155165083
0.0151867124342327
0.0151778568066234
0.0151689917254274
0.0151849242596381
0.0151946623784506
0.0152055048419786
0.0151911711182805
0.0152099018337589
0.0152238590638646
0.0152265757612846
0.0152121848188257
0.0152311796461722
0.0152455513075711
0.0152650886198339
0.0152506426531546
0.0152699801623547
0.0152849191830753
0.0153584427493404
0.0153253223150857
0.0153423029897812
0.0153744589088297
0.0154655397758425
0.0154102919247954
0.0154291750319113
0.0154815204860317
0.0156334743110176
0.0155272943604337
0.0156115745768657
0.0156887593167874
0.0164842816406655
0.0163104583166967
0.0165162761866336
0.0166310672544068
0.0172256539547691
0.0170543464822173
0.0171270624314906
0.017283413196907
0.018953649209839
0.0186437546101733
0.0186026556032802
0.0187507549586275
0.0200801833894433
0.0439889824569507
0.0468719196450668
0.0206994998093106
0.0207147179027659
0.051064480215661
0.0476709222131603
0.020112426765748
0.0200403785765105
0.0490342502495667
0.0453981848716448
0.0200492966040427
0.0202213735599317
0.0421997867567643
0.0437511648277281
0.0202724913297879
0.0198567071773891
0.0394780911920333
0.036485534101349
0.0197750038087436
0.0197409712629983
0.0356875599613306
0.0337505213298536
0.0195219624742771
0.0192444532174575
0.0310771897981008
0.0283914068421494
0.0175927408688145
0.0167841694368002
0.0263119138022518
0.0265488369154261
0.0167165329353796
0.0166514678388385
0.0247118415607343
0.0230705084402664
0.016609360841184
0.0164739305086221
0.0242598235006502
0.0235884663500751
0.0163625366041909
0.016397541354255
0.0254279310805659
0.0276015436666187
0.0164571329280449
0.0165362863461867
0.0301317122162618
0.0330492744785069
0.0166847041935212
0.0168581926822725
0.030518900080087
0.0290364305632966
0.0175852371573368
0.0182620846878273
0.0300074841120956
0.0318628318300313
0.0183483977810699
0.0182199742253342
0.0305851152049773
0.0296789179771026
0.0172599996388643
0.0167332181654638
0.0260611148932846
0.0237847763537714
0.0159071720759974
0.0157694779151582
0.0217791708426205
0.0200771130841751
0.0155970777992779
0.0153855960985487
0.0193184176999731
0.0182306976797742
0.0152165929212671
0.0152755410651514
0.0182184512735467
0.0173128930111337
0.0151358281089271
0.015354851770672
0.0175183834189566
0.0174084638771444
0.0154458652093589
0.0152671739296122
0.0171650528602681
0.0171483502750572
0.0153698231943195
0.0151671196845041
0.0163892707249185
0.0158087681996685
0.01528251809175
0.0150062335536382
0.0150261493568998
0.0150135650690099
0.0150039506759314
0.0150085845224286
0.015030682571609
0.015051331299947
0.0158154718733539
0.0153167900409586
0.0150170748392212
0.0150270910945422
0.0153126238807831
0.0157543231171869
0.0150625454346354
0.0152643811247338
0.0163401258999845
0.0164223369942076
0.015251313617299
0.0151625957967197
0.0163711088970966
0.017031696150128
0.0172044790794947
0.0155180251891845
0.0153560950315474
0.0156534524458232
0.0157846069500039
0.0184722911758768
0.0180769733501055
0.0186945538742133
0.0191391934632417
0.0158669284204331
0.0156499572093369
0.0153997622734144
0.0156101625088215
0.0155899464141518
0.0153856454140914
0.0151147851313645
0.0151847259532186
0.0152090997990856
0.0151315614483665
0.0152781115914563
0.0154129824662884
0.0154868758766332
0.0153281879286719
0.0154032966858271
0.0155646639234293
0.0152709015760515
0.0152112294345383
0.0152837488989198
0.0153384595718899
0.0152383688446008
0.0152034407980508
0.0152512055805268
0.0152816193206128
0.0151981170164305
0.0151853973286536
0.0152340224963793
0.0152438289005182
0.0152209717106037
0.0152129553593817
0.0151823385453732
0.0151925881423516
0.0152137492610305
0.015205578782211
0.0152036212336673
0.0152130444936825
0.0152321879116898
0.0152228100722686
0.0152290196174539
0.0152428923015538
0.0152625163369608
0.0152486161786307
0.0152680806740028
0.0152824697314549
0.0153023462288398
0.0152860099037081
0.0152876796194242
0.015304524887618
0.0153250717269227
0.0153059380807641
0.0153592232322701
0.0153908710735593
0.0153972532842952
0.0153692769544685
0.0153829520899242
0.0154088001498088
0.0154904921485473
0.015447706556883
0.0154567746402251
0.0155005394641216
0.0156358509873878
0.0155486630737836
0.015562974339043
0.0156532141099785
0.0157041257065517
0.0156338882897409
0.0156521964489118
0.0157090512058316
0.0157120464072211
0.0157263799355394
0.0156212533251952
0.0156926663957096
0.0156909580975516
0.0156174683916143
0.0155403078651681
0.0156375442256903
0.0156290277114733
0.0155341426939064
0.0154404554447676
0.0154875443047194
0.0154826805799737
0.0154363846518078
0.0154901758412269
0.0155236330929719
0.0155319230846234
0.0155342385398288
0.0155339121243223
0.0155078628336207
0.0155062865854186
0.0155021699896642
0.0155000839964528
0.0155145932785425
0.0155136427241935
0.0155371536350796
0.0154440361748185
0.0154338577445222
0.0154308329585799
0.0154345925705223
0.0154450707670011
0.0154394182738785
0.0163866055934745
0.0238994394129609
0.022139597229015
0.0156828879142617
0.0154974961920731
0.0206344970302124
0.0207471498770756
0.0156429285131507
0.0155441780691089
0.0193269889077418
0.0200144435681806
0.0159657217313895
0.0155527421891123
0.0186347832189585
0.0185944829046647
0.0157184458589466
0.0155002126103629
0.0181357331843867
0.0181578690107362
0.0156529918190536
0.0157792101370596
0.0182242732061236
0.0186383938640246
0.015981693548302
0.0166027763898778
0.0196438726721177
0.0203498158073938
0.0166705178252034
0.0164667612419611
0.0207286873693477
0.0211441239712781
0.0166177907966191
0.0162576694285101
0.0158609594009671
0.0205255264760176
0.0209129591786397
0.0200664796240846
0.0159746216800772
0.0156912818772484
0.0195988284287356
0.0220661183021855
0.0217252825222634
0.0162692060867048
0.0166415619361814
0.0157282638225442
0.0155228733539699
0.0157859025934667
0.0160248779903245
0.015442735403488
0.0153847925955377
0.0154138086972687
0.0154701008794336
0.015306464589057
0.0152754232169952
0.0152672549496755
0.0152986195284598
0.0153063098982998
0.0152781135300536
0.0152998651271285
0.015328023297185
0.0152648101519504
0.0152516642495405
0.0152522585014932
0.0152630629770758
0.0152397349833026
0.0152305502984646
0.015229836520904
0.0152392826337856
0.0152328059285943
0.0152247225834039
0.0152449791446442
0.0152530814584937
0.0152521134415722
0.0152427117364801
0.0152626605895354
0.0152727935745648
0.0152940151084369
0.0152812132094903
0.0153006550187285
0.0153165516523094
0.0153233000957385
0.0153046224481619
0.0153145473272428
0.015330538072211
0.0153421919284143
0.0153279003152792
0.0153289315139755
0.0153435449254697
0.0153433794134275
0.0153286026839575
0.0153766660645603
0.0154018286866799
0.0154110484855932
0.0153878242074739
0.0153971458136419
0.0154214877755245
0.0154996033500938
0.0154600588871304
0.0154734875911626
0.0155146625786154
0.0156447096599082
0.0155643354167444
0.015584754533032
0.0156706444682599
0.015721403539825
0.0156521298336081
0.0157106004245222
0.0157523174001235
0.016120248203896
0.0161107751668391
0.0161410339642837
0.0161441089892615
0.0166762750854102
0.0165733954068408
0.0166311044452377
0.016721779356086
0.0173276611324226
0.0171849373603094
0.0172569307903568
0.0173891327094305
0.018730896350807
0.0186190000220512
0.0186667516218892
0.0187729887221875
0.0201883114638965
0.0520277395099431
0.0561686093534743
0.0207766720972675
0.0208671863862659
0.0624413674031761
0.0573028745624346
0.0202892601995181
0.0201467814847054
0.0595180986707328
0.0537595188205908
0.0200794493755055
0.0203880032655971
0.0517270259848322
0.0538535192184746
0.0203896922498612
0.0203275728582423
0.048529365176043
0.0429955811766637
0.0207331107940024
0.0212005618122215
0.0399296347880839
0.0374513782589421
0.0199597940624719
0.017867871340619
0.0171131864114886
0.0166416094613757
0.0164912059378395
0.018821498366401
0.0311226968601048
0.0286193675919697
0.0172796260596695
0.0166902373628865
0.0315017133596835
0.0287378388487316
0.0165582889693865
0.0165102901797189
0.0263229613184723
0.0163299840644679
0.0159513039439245
0.0159798268807722
0.015557398295486
0.0156344260378387
0.0161637808856024
0.0165871204690497
0.017985816887351
0.0315198335169046
0.0340326319423646
0.0186345847983597
0.0191124304458291
0.0340931127557072
0.0278726450716177
0.0173851300423504
0.0168153348939574
0.0268324765943756
0.0273973742044796
0.0174637118931203
0.0165744057433563
0.0240841246093315
0.022357635490499
0.015859413822501
0.0163793184312356
0.0248062428757052
0.0222818172338554
0.0161506998475455
0.0165961159834741
0.0216642159267809
0.0228864513555403
0.01665090642033
0.0166009227308028
0.0214025683022899
0.0204759835645349
0.016007744138427
0.0159841757239376
0.0202540996482696
0.0195976892597289
0.0160682633307899
0.0163969818249339
0.0203908265425841
0.01935986537486
0.0161813222938178
0.0165902540607603
0.0206894264862912
0.0210649140469985
0.0171367014454644
0.017162947223614
0.0217431298614037
0.0223148433926294
0.0170960816980895
0.0173736479564297
0.0237424451758982
0.0233047369724953
0.0228577853614543
0.0165350672305324
0.0169345818340385
0.017403411609518
0.0170961363210327
0.0243438595968099
0.0246529435272697
0.0250837340076435
0.0177030799013246
0.0179446018062356
0.026833033730055
0.0263926104519464
0.0264459720984079
0.0178755531706749
0.0180499756607077
0.0174781034766687
0.0171391236366402
0.0169782335402089
0.0173772992140632
0.0160694581637439
0.0158479024741093
0.0158468810365247
0.0160663053838266
0.0154996642344777
0.0154325548206374
0.0154683577716398
0.015534469424222
0.015501357322127
0.0154475759808116
0.0152979890474941
0.0153283111483163
0.0153512619135454
0.0153212141063021
0.0153447514535985
0.0153749499459673
0.0153500741947403
0.0153223992953693
0.0152732904202743
0.0152862385905638
0.0152841898052503
0.0152736064457308
0.01525131373314
0.0152604093111181
0.0152597617533133
0.0152504106700216
0.0152710173654106
0.0152812364358192
0.0152743272401417
0.0152654063999582
0.0152845324448927
0.0152964320406362
0.0153200584189923
0.0153046974440735
0.0153154486092319
0.0153282791742455
0.0153410170838223
0.0153299095034938
0.0153257087016793
0.0153371504448439
0.0153365103600161
0.0153248287347541
0.0153280733589786
0.0153420161169544
0.01535502243518
0.0153420160139642
0.0153418517653191
0.0153553193357047
0.0153562867091423
0.0153425538707411
0.0153421905823456
0.0153561025196599
0.0153689761080747
0.0153550191939528
0.0153979266457978
0.0154205137466672
0.0154340373147466
0.0154098236486356
0.015470532820242
0.0155090182988342
0.0155286070014212
0.0154877355918655
0.0155765287713742
0.015654378894819
0.015687911554214
0.0156022756339207
0.0156690354153665
0.0157396352175406
0.0157730550441598
0.0157314206399853
0.0157520323293283
0.015793967765763
0.0163154575410346
0.0163072265805489
0.0163146602211016
0.0163153712566906
0.016412940958391
0.0164182766936245
0.0164156982900892
0.016400587687282
0.0167704252991416
0.0166922714825297
0.016756808520109
0.0168231953590273
0.0174712836089584
0.0173408902276258
0.0174331276232929
0.0175632662025825
0.018835877801402
0.0187336510449803
0.0188145293292811
0.0189107039939056
0.0204058496674215
0.0635354866491041
0.0698780772462243
0.0209742974118307
0.0210989560634661
0.0205390110484316
0.0709799836482592
0.0789234685418227
0.0898588057534808
0.0212397903432927
0.0206883472284815
0.0798004065565897
0.0836138643995139
0.020444491999749
0.0203259048414312
0.0742808013171848
0.0663165971547276
0.0202277290383614
0.0209806624433287
0.0658331335661956
0.0659378790393348
0.0205527136228689
0.0204586562468139
0.0594893158143441
0.0547254469239681
0.023142082238282
0.0227146875825656
0.0482930028408414
0.0433104279645206
0.0231249339669541
0.0220350996680335
0.0387128518386821
0.0355028133378218
0.0213202726855855
0.0204243264978852
0.0350326604475716
0.0387863062850019
0.0188694915279223
0.0179137123007426
0.0346598437710707
0.0166125369317212
0.0162136559050828
0.0163416520436929
0.0158345627294737
0.0158058737069138
0.0158930517530712
0.0155139747603597
0.0158207186300589
0.0162830066116746
0.0175973317186805
0.0280175282339219
0.0287377745749567
0.0179936177325875
0.0180864540280339
0.0289995678137051
0.0330002735238882
0.0192168331680816
0.0182711030152846
0.0305500889088248
0.0291730906748028
0.0181089490428702
0.0177364903658277
0.0278248723216294
0.0268582579388806
0.0171321546999426
0.0169706372710679
0.0315331431405115
0.0288537179836488
0.0168412856576881
0.0167424233185942
0.0265996586889471
0.0245657938414591
0.0166664110848583
0.0166193202597401
0.0242848736624299
0.0231326672052389
0.0161119312471949
0.0163597540765783
0.0235180835399069
0.0220542426339391
0.0162952572118114
0.0162568161033787
0.0205176393183298
0.0224505276138497
0.0163684530293367
0.0165716992654352
0.0216679009828497
0.0216939648381201
0.0166395923178209
0.0169860858737937
0.0223447087099908
0.0232925794757929
0.0178221231676554
0.0179056337670145
0.0236717419360435
0.0245700159440759
0.0177363280869753
0.0180979771927153
0.0247410464103776
0.0268703075737906
0.0181945365915827
0.0182193334022032
0.0286174665811197
0.0281496202814915
0.0179576754369632
0.0180485840487591
0.0178281907768191
0.027779076462135
0.0274480538612624
0.0286731033010633
0.0294662620799513
0.0178512572423866
0.0180825146878001
0.0172904202339089
0.0170007552126833
0.0160034683154077
0.0162277325949826
0.0161793198842764
0.0159780027119115
0.015503998648707
0.0155702164837497
0.0155294876891168
0.0154771780689787
0.0155044041891452
0.0155555778347235
0.0155784054903116
0.0155288236672239
0.0153680213414492
0.0153984963520088
0.0153713737471171
0.0153439100338268
0.0152950237916678
0.0153086910079323
0.0153063159006882
0.0152949927894016
0.0152721943192687
0.0152821310607934
0.015304941423132
0.0152919444549681
0.015290397644346
0.0153035799562373
0.0153276993931685
0.015310989414003
0.0153221718064299
0.015336252012356
0.0153497625097398
0.0153375177433941
0.0153309380326565
0.0153418507728968
0.0153570531913684
0.0153467219934244
0.0153451116126219
0.0153557123881665
0.0153512636190596
0.0153405312946088
0.0153393015734583
0.015350346571846
0.0153644886187697
0.0153532895446202
0.0153553543887559
0.015368318457079
0.0153686218132344
0.0153550995303323
0.0153554666928102
0.0153692469421204
0.0153823117594157
0.0153681140287076
0.0153675552333113
0.0153819189879321
0.0154301434237541
0.015407742521151
0.015421827083676
0.0154463656445017
0.0155185671135892
0.0154804223658109
0.0155009348386252
0.0155422220718296
0.0156644429983785
0.0155876080991032
0.0156182965230723
0.0157047906109946
0.0157580004361253
0.0156855966160092
0.01570218755027
0.0157763269621126
0.0158141717260364
0.0157714057726264
0.015790810940278
0.0158345671725088
0.0158544004313559
0.0158095498533932
0.0158286621990041
0.0158746551321044
0.016479167510737
0.0165012402225629
0.0164960983060017
0.0164643422562787
0.0165382221283666
0.0165755263217647
0.0165683992031278
0.0165225104392003
0.0168791856406089
0.0168217620573163
0.0168820884551299
0.0169368098952174
0.0176609606027593
0.0175317985534975
0.0176344192327916
0.0177642372863161
0.0189964950044935
0.0189077312598267
0.0190112497357672
0.0190934014722323
0.0192002233566607
0.0191229114954816
0.0213977593665583
0.103219454380626
0.0903199961103849
0.0208536725757538
0.0205794109388028
0.0945770205307022
0.0999131107735117
0.0212618729250911
0.020953144779973
0.0959888980869066
0.0836677914073493
0.0207751714251971
0.0206579703260857
0.0738238740759022
0.0706126442973473
0.0228040480374885
0.0229597370858345
0.062233532188283
0.0632752472225552
0.0243362706826173
0.0245008446764252
0.0541961166462698
0.0490501137194633
0.0245626314849356
0.0245923499156611
0.0461323295071159
0.0552439076664738
0.0245155726549735
0.0234286727960072
0.0225892666319272
0.0232072486294606
0.0429484903458437
0.0416197420280388
0.023145354504414
0.0231045455640162
0.0416017715126731
0.0384854405400806
0.0223448410741359
0.0221417011917661
0.0374659514796324
0.0410521220538103
0.0222164373262365
0.0206193422393617
0.0406301907078942
0.0440466448547498
0.0190501519819652
0.0171448175636695
0.0397799903006471
0.0362383025324674
0.0168934970022226
0.0169989090905622
0.0335397176382589
0.0336789969042378
0.0180165587184698
0.0180353907878397
0.0372595745618377
0.0345706766599851
0.0184033205059372
0.0185534368127498
0.0378986287967012
0.041656074273654
0.0186950333483693
0.0187513204305631
0.0375444501351293
0.0419196641061264
0.0214790688179629
0.0208021721028667
0.0373742906301972
0.0364871159642332
0.0198531627947209
0.0186899793295266
0.0329177499177191
0.0308742337872752
0.0182619076509773
0.0179734495689107
0.029658188302645
0.0304376044760654
0.0182416801233534
0.0182487549524252
0.0310696546911165
0.0362111614133744
0.0193902433404092
0.0214430029281227
0.0417385683793674
0.0360080567256715
0.0205178524370144
0.0192006745470727
0.0326723190029668
0.0298121051370895
0.0187606887093769
0.018275690881767
0.0316257384811792
0.0377652496192356
0.0173228221841348
0.0171504830208612
0.0343582884785103
0.0339533229324921
0.0171277756161554
0.0167561786042324
0.0302629814222587
0.0316048590142164
0.0170741012987994
0.0168290625775757
0.0292699322586635
0.0271221905513432
0.0166232661124129
0.0164671458019026
0.0251909062840926
0.0261414770929786
0.0165625495628896
0.0167829907222417
0.0247365103565189
0.0247251635565913
0.0168550081545477
0.01724408627434
0.0260269061485706
0.0294240917369386
0.0179689559933182
0.0181246543323394
0.0294989049437652
0.0308355927097864
0.0182888505438564
0.0179765346148402
0.0297121279044346
0.0313124764665723
0.0180399558341845
0.0181612593501355
0.0179229966002282
0.0312427071813628
0.0300261222628257
0.0315068231790266
0.0332502460692321
0.0180496438775832
0.0182909919794036
0.0174709610084857
0.0171728046577858
0.0161606057497388
0.0163913515200271
0.0162675002397095
0.016076532334564
0.0155739155211196
0.0156393212525252
0.0156685015699432
0.0156047247093538
0.0155493506144159
0.0155966275332976
0.0154208801309183
0.0153893647155846
0.0153636066511028
0.0153916693427947
0.0153320849585561
0.0153156115279473
0.0153152280964062
0.0153295303633369
0.0153552122627929
0.0153371172082785
0.0153131993003698
0.0153299538557815
0.0153389466510569
0.0153249841522705
0.0153413226135058
0.0153531997076089
0.015349882750455
0.0153379827822279
0.0153547959694979
0.0153660565099675
0.0153658424808181
0.0153539790820686
0.0153706899033633
0.0153830338139675
0.0153730550061576
0.0153624775390979
0.015360093570442
0.0153709619384101
0.015365812009458
0.0153549716795255
0.015369431806313
0.0153807611543178
0.0153788798397765
0.015367151395683
0.0153684907226081
0.0153818215188439
0.0153820221299061
0.0153680501781431
0.0153813315024824
0.015395691619419
0.0153956180792655
0.0153810260739839
0.0153803303312601
0.015395074344118
0.0154401208395762
0.0154178804123686
0.01543388696912
0.0154587132328684
0.0155284802796687
0.0154906049898803
0.0155141655753967
0.0155558450635112
0.0156750380243155
0.0155990521138045
0.015634359686757
0.0157215432398688
0.0157380964714904
0.015650383950476
0.0157187502559804
0.015794608801652
0.0158128541621636
0.0157353040204897
0.0157519022241942
0.0158310858204956
0.0158493008895175
0.0157685582644478
0.0158473701806518
0.0158945099037089
0.0159149029015559
0.0158666288410297
0.0158855628570767
0.015934929534203
0.0159555076022205
0.0159050856498185
0.0166442272591727
0.0165933984247578
0.0165757779523573
0.0166346099268106
0.0167065205658084
0.0166440065662847
0.016623833883768
0.0166942808523311
0.0169385175500148
0.0169947170946113
0.017051688379758
0.0169914375090395
0.0177381985003598
0.0178712317175297
0.0179793400472849
0.0178401691378553
0.017935770843156
0.0180847883102458
0.0193144554147397