/*--------------------------------*- C++ -*----------------------------------*\
| =========                 |                                                 |
| \\      /  F ield         | OpenFOAM: The Open Source CFD Toolbox           |
|  \\    /   O peration     | Version:  2312                                  |
|   \\  /    A nd           | Website:  www.openfoam.com                      |
|    \\/     M anipulation  |                                                 |
\*---------------------------------------------------------------------------*/
FoamFile
{
    version     2.0;
    format      ascii;
    arch        "LSB;label=32;scalar=64";
    class       volScalarField;
    location    "200";
    object      k;
}
// * * * * * * * * * * * * * * * * * * * * * * * * * * * * * * * * * * * * * //

dimensions      [0 2 -2 0 0 0 0];

internalField   nonuniform List<scalar> 
209453
(
0.0158043629863796
0.0168266951888842
0.0223828549178911
0.0212618983558578
0.0165571684030604
0.0164653158315625
0.0208297905609035
0.0201787280079232
0.0197703945035767
0.0157907208750725
0.0160114098317398
0.0155311514297502
0.0153833933039447
0.0154603610274123
0.015598112109462
0.0161721184187823
0.0211260022010844
0.0208373423366462
0.0158859554977758
0.0159746418389152
0.02224466109403
0.0223607445941059
0.0162939901510538
0.0156829721350188
0.0155350677154409
0.0156201452352615
0.015771906949395
0.0165424065514702
0.0236467378270869
0.0235488365699611
0.0161767129117533
0.0167387776418498
0.0247207029828829
0.024920033433392
0.0171698418426113
0.0173110598430108
0.0253205108762208
0.0238002166600331
0.0169737252658779
0.0171462595933049
0.0234345589118994
0.0226890312729977
0.0171518739086092
0.0169901731553834
0.0210298027154683
0.0196510060209599
0.0165794334627459
0.0160329397803063
0.0186254861395755
0.0171719145452934
0.0155530521262909
0.0152644595774822
0.0163347215797051
0.0157512163879437
0.0153141786948966
0.0150262948093143
0.0150622840826343
0.0150494509484082
0.015014818597499
0.0150111179703843
0.0150081537824281
0.0150231990423912
0.0150383135906069
0.015074530792917
0.0150477238397315
0.0152259488451061
0.0163415756303773
0.0163916046135079
0.0152584429891763
0.0150607357454384
0.0150872158068019
0.0156036959733994
0.0157018188743958
0.0152726564870784
0.0152904935665413
0.0150252624848887
0.0150264925518964
0.0155448935682592
0.0171624295712066
0.0169934029032809
0.0154243797180146
0.0151092941337615
0.0151671554163556
0.0151830409968374
0.0151178380969801
0.0154492223140363
0.0156441237353387
0.0156661126435303
0.0154658403186386
0.0153238676467684
0.0154463135533903
0.015203999387532
0.0151314251304219
0.0150871495647221
0.0151274893938211
0.0152115787308957
0.0151446080560334
0.0152010594652789
0.0152673963435923
0.0153159273251197
0.0152605227977033
0.0153292169924391
0.0153914827477415
0.0155299848243743
0.0154185344070703
0.0157806383662653
0.0160061760010916
0.0163357997276039
0.016172433063649
0.0173920161743785
0.0262349057765654
0.0263025630184488
0.0176856640377316
0.0178002690892659
0.0267303762061175
0.0258501932028665
0.0174968453214183
0.0177581879039185
0.0267360215709073
0.0276179745360401
0.0177826535210887
0.0178455499807622
0.0273443100623419
0.0278062143751862
0.0177386922673338
0.0177956834802533
0.028017185843527
0.0307048193562694
0.0193212362797412
0.0188950195699177
0.0297783232358044
0.0290360775062409
0.0183291299736131
0.0185406826593557
0.0307737657598292
0.0299224318072949
0.0178338093638762
0.0174069307231145
0.0269010881879539
0.0246790210075668
0.0172488637412293
0.0168038342264502
0.0238083634916941
0.0221853507346495
0.0166955210881851
0.0165815398469441
0.0207668548098008
0.0195441595829978
0.0163203185354913
0.0162468956238212
0.0194022399691967
0.0184878618479539
0.0160177039899188
0.0155545719669838
0.017247122286605
0.0164286380085546
0.0152819739153967
0.015054818642082
0.0150200912578843
0.0153218677960914
0.0158280055194671
0.0158364230659046
0.0152869893786131
0.0150116244157049
0.0150343063594956
0.0150180497386073
0.0150078667233635
0.015013261349985
0.0150342879344399
0.0150387481737968
0.0151489597802652
0.0150954194215679
0.0151871292050565
0.0164385837563599
0.0164407576932839
0.0151169116006841
0.0150164482805426
0.0150045290055499
0.0152883782844893
0.0158302078571757
0.015909628324136
0.0153437139487842
0.0150013169952123
0.0150126118202925
0.0150085280507911
0.0150047142908266
0.0150025548818087
0.0150049885094482
0.015008575329295
0.0150037810571857
0.0150053240435991
0.0150157399494037
0.0150105475470822
0.0150049769846983
0.0150033013165834
0.0150043692461491
0.0150016482550246
0.0150013417140312
0.015003191706429
0.0150043349164163
0.0150087354525956
0.0150060414412571
0.0150074373599294
0.0150168174009871
0.0150630982116864
0.0150326773428752
0.0150197502362711
0.0150292836234482
0.0150756949820508
0.015056065561249
0.0150820788556719
0.0150997983364802
0.015132644411325
0.0151177532368465
0.0151571425366294
0.0151923987596167
0.0152353930681883
0.0151996979955223
0.0152430410203538
0.0152811944766087
0.0153340828137585
0.0152908696842349
0.0153445894582186
0.0153872157097962
0.0156682951038974
0.0155510404152286
0.015631573299856
0.0157301316430784
0.0163825485565056
0.0162308790528097
0.0162316181512398
0.0163746587782027
0.0176256258345068
0.0177194880465373
0.0180749497068794
0.0177928311604606
0.0177336233688343
0.0179615956393501
0.0192940505415195
0.0321919672493572
0.031228115103268
0.0189181534763207
0.0184013731183994
0.0308677054686289
0.032379560694293
0.0185805036833746
0.0202455130400066
0.0344466044583955
0.0342223871053804
0.0196453051195576
0.0184353634090282
0.0310376088826358
0.0280328294946462
0.0173048485123997
0.0169417702828613
0.0256623282201214
0.0253257887142995
0.0164352841008053
0.016385077592559
0.0236282385702577
0.0221416031513479
0.0163730866539204
0.0163747258045461
0.0207216667249168
0.0211353017867326
0.0164330777248024
0.0163602507929002
0.0194957986645848
0.0192715065870365
0.0160933746458007
0.0157614499300728
0.0184037832815362
0.0172328436254932
0.0154242026691079
0.0152512495596152
0.0172105300329178
0.0174151519211549
0.0153793636976165
0.0151597169789335
0.0165732214281948
0.0166609505805657
0.0151422484472891
0.015011224853512
0.0150038373130949
0.015373883073103
0.015961326606608
0.0159022941646416
0.015341541242552
0.0150022956730969
0.0150088403400398
0.015005923997546
0.0150026147247614
0.0150025778944933
0.0150061955002661
0.0150063479260271
0.0150024416832777
0.0150024209013279
0.0150064638298904
0.0150067399142563
0.0150016904173776
0.0150009148459524
0.0150008217753505
0.0150045793312633
0.0150050727720678
0.0150149512472343
0.01501264788874
0.0150305230653213
0.0150397108353305
0.0150867195051542
0.0150686951569002
0.0150937733114051
0.0151067447433613
0.0151361476114252
0.0151271044435891
0.0151143320924055
0.0151248719277762
0.015158470464351
0.015148632203567
0.0151545083495657
0.0151692058505074
0.0152067663105271
0.0151911153280158
0.0152284281446816
0.0152451027360988
0.0152819260051915
0.0152656049832219
0.0152854087056135
0.0153021603059077
0.0154079032442173
0.0153663667215983
0.015374388780805
0.0154171376790888
0.0156994975584202
0.0155876317291002
0.015626764590285
0.0157326730871826
0.0157845998383894
0.0156965074705679
0.0162998579427214
0.0164431421338133
0.016432447428825
0.0162898615372405
0.0164821830585655
0.0165961709553021
0.0178455732775797
0.0180998155483876
0.0194826836836838
0.0355323746450164
0.0335320095598052
0.0191773179204874
0.0199686610885777
0.020777573117754
0.0382750183254621
0.0355848828623336
0.0340186275573483
0.0190967721399088
0.0197530450221723
0.0360580574667667
0.038647832687271
0.0429862711211797
0.0215368729390698
0.0204090165074842
0.0193033359150801
0.0188123800858674
0.0188460246401802
0.0193102157126743
0.0204990910824625
0.0214621752958931
0.0457201723401993
0.0410248069579083
0.0432312903929647
0.0205684405179152
0.020743897426679
0.0398011740348747
0.0397142623284165
0.0207823410985892
0.0207104360803993
0.0366070090774523
0.0204479177645707
0.018083578284432
0.0204668375157988
0.0403022188955033
0.0351319160539251
0.0201580059253038
0.0195721010506449
0.0326952215277773
0.0295518865244199
0.0175409335602062
0.0166022999706696
0.0272909751382733
0.0280675618042271
0.0165676426644119
0.016484174724305
0.0260407935447192
0.0242794277387184
0.0164558116151677
0.0164490371356204
0.0227557547734621
0.0234877600877407
0.0165520140464991
0.0165789876437336
0.021392098158037
0.0205307752162542
0.0164117920145519
0.0160188922969061
0.0197790264955377
0.0189777183213737
0.0158644795293149
0.0158739529418844
0.0196709210628456
0.0181592620615635
0.0154651957334198
0.0156207103106298
0.0185622368300374
0.0186798793721153
0.0154688986973897
0.0153447450167201
0.0175315821091039
0.017324339129784
0.0151400314542093
0.0150691377878051
0.0165555786752396
0.016552577151895
0.0150711297221029
0.015013166424
0.0158998212811884
0.0153411546224768
0.0150033459951287
0.0150038396094816
0.0150084123516297
0.0150071594283659
0.015002615239002
0.0150023797407149
0.0150075355684034
0.0150079140988046
0.0150021986884658
0.0150016493935329
0.015012569261156
0.0150063168204259
0.0150048470657997
0.0150002219922995
0.0150000404319808
0.0150057568728655
0.0150043115926092
0.0150224117158076
0.0150379831395491
0.0150785577946286
0.0150527008657824
0.0150158155662715
0.0150225025534616
0.0150767256799174
0.0150477924638055
0.0151018702934124
0.0151407076661958
0.0151667588126897
0.015132511653455
0.0151732569904113
0.0152058277376356
0.0151433847932769
0.0151310501728219
0.0151669544261178
0.0151789059863703
0.0151695450829389
0.0151612021498719
0.0151952017014942
0.0152037417731504
0.0151929087063534
0.0151828455157115
0.0152173872523525
0.0152279075174942
0.0152620932989338
0.0152513425021202
0.0152699361297259
0.0152817005228417
0.0153011754233828
0.0152842275202522
0.0153039962598509
0.0153223398521761
0.015323225322222
0.0153050453716457
0.015388986669653
0.0154293099009698
0.0154399954657238
0.0153993930810005
0.0154226004323584
0.0154636997884561
0.0157590758929399
0.0156596734173999
0.015779712721083
0.0158413054590973
0.0165304961012204
0.0163896062647644
0.0166172110405791
0.0167050954677929
0.0172115950333329
0.0171284720708005
0.0186179430358861
0.0183507204693027
0.0171551539627323
0.0168528841407779
0.0163397036041609
0.015836000813978
0.0157256313588526
0.0157293397080902
0.0156754447015746
0.0156652963756149
0.0156308088978937
0.0157448401335865
0.0157303257247666
0.0162978258957581
0.0168624086326155
0.026844490193798
0.0238078671456208
0.0164504170293759
0.0158105409245593
0.0218192202856235
0.020115849523818
0.0156094557349121
0.0153209290740048
0.0193233714759313
0.018240614979271
0.015220879388344
0.0152246852878946
0.0182247592916154
0.0173169520415406
0.015143282949645
0.0153586117186344
0.017524378339041
0.0166620117146582
0.0151467357373299
0.0150111459330644
0.0150055221816115
0.0153728569129853
0.0159609541195244
0.015910809679672
0.0150130672889595
0.0150018298950123
0.0153424999698523
0.015287084737864
0.0158055494608949
0.0150152433855246
0.0150023330316379
0.015003406678711
0.0150085420865858
0.0150068896746578
0.0150030473767302
0.0150043608716814
0.0150095828924422
0.0150128020639248
0.0150588120139045
0.0150552608696054
0.015164112895199
0.0165770329713582
0.0164011339402396
0.0150994407210608
0.0151580945591501
0.0163851314625845
0.015807393386687
0.0152852769618008
0.0150065815229339
0.0150281365424453
0.0150147012658528
0.0150046463172026
0.015009712681584
0.0150328743310395
0.0150441175189032
0.0150091326412871
0.0150270166546822
0.0153128722117854
0.0157399428184866
0.0150625493347249
0.0152805994026496
0.0163156968000803
0.0162936801958516
0.0162772474688448
0.0151432612058488
0.0152525714145258
0.0150607324818537
0.0150440684477972
0.0150190830499466
0.0150270032400951
0.0152725217483981
0.0152904668914204
0.0155948265569897
0.0156530542042577
0.0155925076698882
0.0154124235037546
0.0168737423964934
0.0169833619763668
0.0171595080701102
0.0155443895895033
0.0159814525784722
0.0185689443121363
0.0182580053595084
0.0179215924258903
0.0157001199405177
0.0158415640205858
0.0156361687096597
0.015420239542424
0.0151316203269812
0.0151999621597108
0.0152266178893604
0.0151503117643623
0.0153080834697165
0.0154449392327907
0.0156580149074731
0.0154365115602247
0.0156964288904794
0.0159196437074211
0.0189691790435449
0.0186179968583957
0.0195680045097799
0.01573625937553
0.0159894714735765
0.0199255676345327
0.0205808230296524
0.0163909416532775
0.0164710449159054
0.0209945601976607
0.0208363352193185
0.0205978643696993
0.0158017124417474
0.0161213053949747
0.015567104302326
0.0154198668128291
0.0152214304446502
0.0152769125045529
0.0153264075027827
0.0152744524020032
0.0152148116613484
0.0152478993693261
0.0152902916077181
0.0152557977232354
0.0152023474970418
0.0152146443409773
0.0152509183428598
0.0152384334246054
0.0152297476824046
0.0152388004356518
0.0152735211558433
0.0152638710689922
0.0152827472828502
0.0152936250167606
0.0152816323220319
0.0152698233715106
0.0152896708529219
0.015303484324436
0.0153032780563855
0.0152895625641909
0.0153097370782742
0.0153264650815172
0.0153448091300142
0.0153240867068174
0.0153250235742773
0.0153456297077545
0.0154505000256706
0.0154106240307169
0.0154225929981731
0.0154579910283195
0.0154719584686523
0.0154382763615566
0.01545028845271
0.0154847204134623
0.0154854696014883
0.0154512272514239
0.0156795510126664
0.0157635477965779
0.015788197582978
0.0157037527253912
0.0158101944135754
0.0158664813682374
0.0158716293599917
0.015832445298129
0.0159154251886633
0.0158756107200223
0.0158492609330775
0.0157933928736521
0.0157896724945652
0.0158481454693092
0.0157674291335298
0.0156772512582572
0.0156667412540152
0.0157559052129001
0.0154712207660727
0.0154347151961538
0.015434568317496
0.015470961542914
0.0154853848327587
0.0155215036220318
0.0155379964899895
0.0155470186903148
0.015546884960473
0.0155613538063419
0.0155616225024731
0.0155633799120682
0.0155629060427327
0.0155713930836391
0.0155696939249069
0.0155866484668193
0.0156094024268669
0.0156123371891094
0.0156722398566197
0.0158122402955957
0.0159007296004328
0.0154439468876419
0.0154706063483351
0.0161884376981634
0.0237830702826566
0.022098595563621
0.0159357548604019
0.0155757105743898
0.0205818741049872
0.0205525535816861
0.0157760881398839
0.0153601276427768
0.0192930251397759
0.0200038484721646
0.0156787012680948
0.0154755855741742
0.0186406863984656
0.0185121967111805
0.0155231586587905
0.0153745080522187
0.0180440081447313
0.0180754371622337
0.0155745840227587
0.0153232581426845
0.0171242379050128
0.0172039279318683
0.0154687507463636
0.0157220917740307
0.0182098879873313
0.0199876633235085
0.0163429598096096
0.0161649241278346
0.0192467500979581
0.0195371566407576
0.0165618543007332
0.01658476795324
0.0201897246762109
0.0214813645918336
0.0168788607638813
0.0167051090134271
0.022079782552591
0.0220461108175313
0.0219990264596411
0.0158653747082509
0.0162158378030381
0.0156388979025864
0.0154916365217887
0.0155889327226274
0.0157364443726191
0.0153879290251761
0.0153339086961156
0.015408866996971
0.0154714688448323
0.0153349946439063
0.0152994664818573
0.0153446551288053
0.0153776916560356
0.0152860937403909
0.0152738687859551
0.015293190629072
0.0153063311706224
0.0152936124336658
0.0152827372653266
0.015303179134069
0.015316313790167
0.0153161264062365
0.0153030160219841
0.0153241013012395
0.0153406330414332
0.0153271118238505
0.0153101683227264
0.0153210421896564
0.0153354204714864
0.0153482121559954
0.0153349969915123
0.0153343576746591
0.0153473110007207
0.0153471860780323
0.0153342162056557
0.0153481631404061
0.0153646496373193
0.0153651167425848
0.0153484256659218
0.0153492571248087
0.0153657686948014
0.015365635068719
0.0153490941565366
0.0154322720106401
0.0154653138650555
0.015476783387297
0.0154458546587937
0.0154554151890078
0.0154873770623309
0.0155001575775377
0.015467469952749
0.0154689606245314
0.0155014305104354
0.0157732065660513
0.0156947870557725
0.015730516509368
0.0158113281201183
0.0158903112758229
0.0158348090717074
0.0159028236384516
0.0159263614972893
0.0162628374540027
0.0162737417701519
0.0163093140001989
0.0162992566172178
0.0167811077947766
0.0167031655244725
0.0172332455995022
0.0173093726235509
0.0189935171175997
0.0185902298883563
0.0208933972490885
0.0447406919537598
0.0408573301328393
0.020355474165712
0.0204758067547469
0.0429332376326236
0.0451795440699557
0.0204571566536461
0.0207367989660107
0.0431006278708542
0.0436070388281322
0.0208306744226866
0.0209083010115608
0.0487682371174763
0.0441283695976344
0.0215325111968423
0.0223807859458383
0.0434272029689556
0.0379654092652535
0.0217089365346575
0.0214996058125584
0.0375267698555133
0.0350385628792444
0.0208233798641783
0.0203727700252017
0.0342731948028904
0.0366627061832655
0.0193428355559007
0.0180970360634508
0.0328576217849143
0.0303167067704746
0.0170764746743644
0.0168944778980263
0.0330874241875264
0.0301118916070477
0.0166740789950449
0.0166065432284782
0.0274714394832451
0.0252831106442381
0.016566127783952
0.0165721953092859
0.0242594292421885
0.0228034603076536
0.0165564509021081
0.016162444385318
0.0216928589380548
0.0205089433226861
0.0161124252120088
0.016058378712837
0.0204440286099906
0.0159892000062729
0.0161027029728983
0.0161622937003446
0.0218305296959373
0.0227384277774173
0.0161456967336939
0.0160509787985545
0.0202819734248555
0.0153284433693137
0.0151294136165172
0.0151340042104189
0.0152862691016735
0.0159369781098883
0.0198891833505702
0.0191135645089327
0.0156801872055836
0.0160318848272411
0.0194299582664693
0.0204130037633906
0.0164207805141248
0.0167962011466831
0.0211237331949766
0.0211293564353214
0.0166103920253904
0.0166568095172567
0.0217153760426815
0.0224666031580484
0.0170423154801136
0.017028675656272
0.0231025084329981
0.0234140291764081
0.0169005844718137
0.0162609967407263
0.0159070472954725
0.0228001584193934
0.0232489522328334
0.0243624898654258
0.0239106778208907
0.0165014797503723
0.0169711512108055
0.0159410451402966
0.015749114596704
0.0161477798706591
0.0164220165245533
0.0155844214660456
0.0155161818626569
0.0155453450833375
0.0156103743146103
0.0153993486717093
0.0153665339469918
0.0153649621529039
0.0153968480417524
0.0153063405611917
0.015293122378284
0.0153140788670098
0.0153293359036194
0.0153290275718685
0.0153139543800188
0.0153356802687876
0.0153540212063538
0.0153411648815877
0.0153245253564633
0.0153360767824323
0.0153500870301706
0.015363623780891
0.0153509015505422
0.0153500597731625
0.0153627497106855
0.0153628519847449
0.0153501942363392
0.0153353543313338
0.0153485041364223
0.0153632225967807
0.0153506268954157
0.0153499273039747
0.0153626252277734
0.0153614686932174
0.0153490966060578
0.0153489393855564
0.015361320012739
0.0153783190413613
0.0153627224930856
0.0153632087627637
0.0153791312113742
0.0153795801375458
0.0153638556436763
0.0153637099954816
0.0153794348388925
0.0153934601012696
0.0153775512251973
0.0154578578580258
0.0154883009647715
0.0155027805547602
0.0154707908839853
0.0154829899281504
0.0155158209501613
0.0155175498531321
0.0154850002856979
0.0157073096430765
0.0157840100726171
0.0158345684364071
0.0157534526335303
0.0158592495235944
0.0159157803077407
0.0159578189034203
0.0159372304618889
0.015973735546863
0.0159873201711711
0.0164771293428818
0.016476318872626
0.0164985177914576
0.0164940515157969
0.0168591744583246
0.0167910816216021
0.0173306443279826
0.0173986437862227
0.018849935404472
0.0185927434765186
0.0207496372443222
0.0475665325330805
0.0429558686472245
0.0203540114680168
0.0204165757883149
0.0463094784152763
0.0518202651863834
0.0207825384119914
0.0186560981784692
0.0188773627476932
0.0189599112597417
0.0187508268766522
0.020877123975138
0.0569857672660356
0.0502628898479912
0.0205264269061569
0.0207265657466861
0.0542896343511545
0.0493338850000635
0.0204881431709463
0.0209325522219447
0.0479759689446326
0.0538730066222345
0.0214163347874234
0.0211612514803316
0.0550379442478645
0.0504204129182125
0.0239132750033227
0.02519524050075
0.0486130469053075
0.041586045617834
0.0235727398945936
0.0233993790690378
0.0412558675389558
0.0384781770815367
0.0221716324910582
0.020468878105161
0.0370643081752309
0.0432293234176446
0.0211489890650185
0.0197209798593122
0.0404503630178239
0.0449347444655885
0.0189805553969702
0.0183367465367123
0.0404312431435933
0.0364498745426795
0.0173809171637115
0.0169647771368271
0.0339228008194373
0.0310218599442494
0.0167982332949592
0.0166972767835365
0.0284616695104219
0.0261600082008217
0.0166159549462282
0.0162398759938155
0.0244390740600526
0.0229157433042351
0.0161921094105368
0.0162061318516207
0.02301942063769
0.0242587077458892
0.0164374988120522
0.0172907101037582
0.025700475651128
0.0273689572664198
0.0175712333958139
0.0174072433342683
0.0281494437070526
0.0301851760242243
0.0178917448767674
0.0173544865347808
0.0298170363671123
0.0259187220226475
0.016649727530949
0.0170560592413021
0.025691020416321
0.0238415104948079
0.0162320802176919
0.0159963803279129
0.0221038912902328
0.0242009066227692
0.0165834550281935
0.0162745427172679
0.0216282029905709
0.022113526067863
0.0168601422634548
0.0161219996058728
0.0207026175518455
0.020065136658837
0.0161551988264041
0.0163395101033856
0.020919184553078
0.0218104597762941
0.016772393331217
0.0168865013906573
0.02288258095266
0.02273047316413
0.0167343533140381
0.016932666066949
0.0233687571223132
0.0244079919466621
0.0173155473885307
0.017552756211782
0.024879828260229
0.0247803039076428
0.017429500378501
0.0179606000877866
0.0263601585100729
0.0256544158862486
0.0252102452196699
0.0171481926324716
0.0176986073660943
0.0183639265632386
0.0179110562200842
0.0268444514662876
0.0271609792255726
0.0279787988771847
0.0184744864595421
0.0187927361440009
0.0300532653873443
0.0292439850571734
0.0293421055178976
0.0189585346442265
0.0191190986943464
0.0185224661716276
0.0180687031236803
0.0178094106223652
0.0183821949460243
0.0165060413918425
0.0162468935604024
0.0162310995025674
0.0164953791943171
0.015622887677052
0.0155518944234957
0.015586500637586
0.0156555112782348
0.0156316262600906
0.0155714262233491
0.015390055066286
0.01542338149974
0.0154167356541121
0.0153856487584356
0.015406348563175
0.0154376008940769
0.0153548313307288
0.0153361921629546
0.0153483887086969
0.0153641049063409
0.0153783376704128
0.0153640912403711
0.0153629658251744
0.015377204940172
0.0153765731264067
0.0153624922704876
0.0153510948459426
0.0153638694442534
0.015379782492777
0.0153674956901571
0.0153668600358588
0.0153790903323525
0.0153779104227068
0.0153657586600613
0.0153659811306279
0.0153781135706561
0.0153938273592917
0.0153813477120621
0.0153654451996534
0.015378364848888
0.0153773483582169
0.0153643110110155
0.0153632778947893
0.0153759325634155
0.0153757280461328
0.0153630938967169
0.0153765576688167
0.0153922338685865
0.0153933922555203
0.0153772405092698
0.0153776969721419
0.0153936669957204
0.0154079183494006
0.0153913547431262
0.0153911913571386
0.0154076150020055
0.0154998024848637
0.0154694046635635
0.015485529297237
0.0155180397730224
0.0155315443661098
0.0154980414351248
0.0155005436329324
0.0155337338424685
0.0157954924848042
0.0157192581956281
0.0157752280318192
0.0158576206934528
0.0159417278144466
0.015883605204426
0.0159079735620011
0.0159677156450277
0.0160163321416097
0.016002962197135
0.0160324635099993
0.0160456259418701
0.0166018150227925
0.0166147756694124
0.0166289689246649
0.016605645700385
0.0169423093860158
0.0168850674878005
0.0174474995117587
0.0175112012058505
0.0176451164897756
0.0175807668408368
0.0177266548418398
0.0177911299580291
0.0190655136570028
0.0188692748415698
0.0210073588409964
0.0632127222687456
0.0550353227806128
0.0206719170133647
0.0210161013043635
0.060100211561909
0.0609865349946586
0.021952218767347
0.0213128730599774
0.0612927063451459
0.0578180188641127
0.0243019722963328
0.0265640140342549
0.0614680436386495
0.0556264604887284
0.0269287595929723
0.027184270768271
0.0524461434849093
0.045235887104844
0.0250620955945099
0.024751488850702
0.0445403482133707
0.0484209887213872
0.0246964093828867
0.0233958044003663
0.0480537958090845
0.0520318565485177
0.0235534739527859
0.0216114050263111
0.0495365045569922
0.0445323884080284
0.0202572133306527
0.0197914234406488
0.0498621171444895
0.0447918452799064
0.0180923196863447
0.017609969012586
0.0408283694104541
0.0372022576618211
0.0172428858964143
0.0170337693028269
0.0347156700698808
0.0317131585176558
0.0168015032594926
0.016630898268013
0.0290466877615765
0.0266052288500394
0.0165288617652785
0.0170832858056106
0.0259825392497128
0.0268248773276855
0.0175983999934709
0.017688591739613
0.0284701381755717
0.0307421365354239
0.0177859779910409
0.0179673727350548
0.0334060510134749
0.036373440882338
0.0181466310251597
0.017851629226548
0.0312238000153386
0.033882344199345
0.0184583018093515
0.0179050070868626
0.0331188321713864
0.028531427269222
0.0170629569747385
0.0178708623449433
0.0288605273647997
0.031356724808525
0.0190544541779117
0.0185514630899464
0.0299002635890556
0.0268522148439779
0.0170001907608524
0.017410149319311
0.026132508694978
0.0285910833827072
0.0175179100654558
0.0173391352061796
0.0264803382139447
0.0247289455194675
0.0172415385175802
0.0171666709036413
0.0231084286457827
0.0219110864901005
0.0164733094226152
0.0164031778031259
0.0215957574203041
0.0227008916866348
0.0170316576290042
0.017118112510393
0.0249713537941437
0.024577195831579
0.0170051915210773
0.0169982770140439
0.0244693512245252
0.0252865988766216
0.0174841180999823
0.0184825033664665
0.0273975729963572
0.0270150065497095
0.0185066943471285
0.0184119231820822
0.0276311069734044
0.0281557094880552
0.0188874843022152
0.0191578250073805
0.030700958758628
0.0332386747167416
0.0192719765811067
0.0190909795598861
0.03238250624798
0.0314889622966623
0.032177313798584
0.0190741698465437
0.0196330273394581
0.018308747160186
0.0179634961293329
0.0163310595503128
0.0165832285270772
0.0165303449165588
0.0162905518555319
0.0163330163907773
0.0165385302363134
0.0156884196616982
0.0156206047496274
0.0155940942622195
0.015648791049213
0.0154493642410698
0.0154143786562632
0.0154272612538719
0.0154577224727221
0.0154725066507461
0.0154440177966978
0.0154355964888509
0.0154614283727044
0.0154494722854456
0.0154246889762845
0.0153639560835672
0.0153783977736521
0.0153955715248664
0.0153817315296134
0.0153814231387604
0.0153949648417467
0.0153937661095878
0.0153801073703465
0.0153790664548103
0.0153925166553443
0.0154095024618484
0.0153957230520849
0.0153838317522792
0.015396511375621
0.0153952229874623
0.0153826387192648
0.0153811170368118
0.0153935818670056
0.0154097817785693
0.015396606940823
0.0153966065642424
0.0154099427758396
0.0153938185590921
0.0153801401686521
0.0153784973828317
0.0153922933568448
0.0153905881555663
0.0153772771255205
0.0153770674079665
0.0153903068093387
0.0154062992318686
0.0153902084349298
0.015391066946945
0.0154077981536602
0.015422517733943
0.0154052345575285
0.0154053513566059
0.0154224944562145
0.0154220844510658
0.0154051658805895
0.0154811895283684
0.0155115730246082
0.0155335000723893
0.0155004667092701
0.0155134595737838
0.0155476602304673
0.0155503439273428
0.01551648629459
0.015731612218185
0.0158075237488436
0.0158806625744502
0.0157971532806382
0.0158190538244212
0.0159035473894255
0.0159937788342649
0.0159322611605159
0.0159565141054981
0.0160199090218389
0.0160746970855808
0.0160611755082953
0.0160905818833016
0.0161043014974119
0.0166937834877138
0.0167276405830751
0.0167381628350685
0.0166931911803771
0.0170312740323255
0.0169847340645807
0.0170866854427419
0.0171250173144258
0.017221008809265
0.0171888620039992
0.017880750200665
0.017941654057565
0.019186173120223
0.019004223134856
0.0211599127454179
0.0703073640459912
0.0604707172704628
0.0208445624634726
0.0212490352185739
0.0669800805185761
0.06956572636484
0.0224103684946232
0.0215087621601606
0.068307532459365
0.0664314322911249
0.0241012270377997
0.0262612498656833
0.0709761268832424
0.0621711387974168
0.0267513346488898
0.025099487250068
0.0514916285783348
0.0469053382149867
0.024980505401213
0.0246865555629143
0.0459316252649866
0.0492955713686588
0.0246826330891217
0.0248345661955509
0.0547082650345073
0.0618099997744629
0.0252529510076313
0.0235268834115527
0.0564988096272575
0.0631831679233398
0.0244390910329614
0.0228371716262349
0.0609394585338116
0.0499907517550404
0.0209839732366911
0.0209648290956699
0.0553685281143406
0.0491973214423626
0.0187406160676255
0.0181340947194043
0.0465900083035617
0.0420630843653684
0.0176871818836694
0.0173246554521416
0.0381482588734245
0.0397410318169011
0.017938974194575
0.0176403742850039
0.0358768958539892
0.0324486021016324
0.0175118840697373
0.017448956624893
0.0295849993288884
0.0173870777478341
0.0173282401491451
0.017420702915906
0.01669351108816
0.0156538684049175
0.0156102968532853
0.0170066278491257
0.018255403884746
0.0309300593096386
0.0365895868387784
0.0182017365311724
0.0179550037711732
0.0337087066466617
0.0308769898997618
0.0177263355926753
0.017762953779804
0.0301856286854108
0.0278871536981542
0.0172870173169483
0.0178423121010235
0.0295123417878958
0.0273684839142468
0.0175160235523855
0.0172670163276925
0.0255900433973483
0.024221795893494
0.0171061083028445
0.0165791566222327
0.0233018601828057
0.0245691828605252
0.0167606600725214
0.0169988261282735
0.0260942502280111
0.0279241907221635
0.017511789036298
0.017315780445615
0.0260041320403441
0.0244043064630978
0.0171728831861263
0.0171444270221034
0.0162056615346617
0.0170351303433401
0.0246008737677055
0.0234937213685086
0.0171578561953447
0.0170477481800651
0.0172402597044715
0.0165288696414264
0.017427977834305
0.0272077467358322
0.0288806443279877
0.018008253782766
0.0173392598186278
0.0175942438751135
0.0180222855655029
0.0327532596940177
0.0299098168021407
0.0175893732714935
0.0182046021178514
0.0320490048448015
0.0340273918390379
0.0191389816702006
0.0197412099770102
0.0310505958327876
0.0312541512333042