/*--------------------------------*- C++ -*----------------------------------*\
| =========                 |                                                 |
| \\      /  F ield         | OpenFOAM: The Open Source CFD Toolbox           |
|  \\    /   O peration     | Version:  2312                                  |
|   \\  /    A nd           | Website:  www.openfoam.com                      |
|    \\/     M anipulation  |                                                 |
\*---------------------------------------------------------------------------*/
FoamFile
{
    version     2.0;
    format      ascii;
    arch        "LSB;label=32;scalar=64";
    class       volScalarField;
    location    "200";
    object      omega;
}
// * * * * * * * * * * * * * * * * * * * * * * * * * * * * * * * * * * * * * //

dimensions      [0 0 -1 0 0 0 0];

internalField   nonuniform List<scalar> 
209453
(
3.61186271337022
8.63240858360288
29.5165559342756
27.1833943703517
7.6759635852289
7.41482411823767
26.2352908086643
26.5413530738267
28.1534558136284
5.81478663919632
5.56803520796108
2.92963069464716
2.73357687336106
2.89072849502794
3.05195195967993
6.10692768839837
28.1689180276918
29.1577049424114
6.0835295272717
6.23126608222295
31.0732538852282
29.9400591208987
6.4585610222703
3.24791015516327
3.05246490912827
3.30351967077525
3.49553137381691
7.2560607856139
31.9398045549315
33.284637300728
6.90067498215256
8.88594729633882
38.329979937643
37.0204883376023
9.44985480318041
10.0936921446051
35.9641697362999
32.166551584324
9.11561178886882
10.1075960200238
35.9765325842132
34.7375089444591
10.2583424837673
9.78389630991948
31.0071045897894
25.663504669418
8.13694025232272
5.59065428106524
20.3731887767481
16.8696793924108
3.55624010888735
2.38843947559409
14.4795545613124
14.0528719287418
14.3078949834943
1.08329117239717
1.09912249566541
1.02226845904547
1.00389162550306
1.00291644407044
1.00200338500768
1.00596465324164
1.01291190761813
1.02851809358054
1.01320349605053
2.48486444370314
17.5239298235941
15.8854132495881
2.4081913471008
1.15514506423803
1.81380106665616
16.065507005434
14.4258410790043
13.902583787807
15.3789557233666
1.1533036210894
1.15752017081375
3.88393832451302
18.7305140711507
20.1815806574527
3.92600617120022
1.33464160111534
1.38297592286678
1.3907151078203
1.33771755353332
3.7427359853532
4.01196008208674
4.02949714585451
3.75321595122736
2.636248769899
2.66378493451869
1.3996261195203
1.34258941102837
1.11175586513582
1.14342017604091
1.4186880720507
1.28917303776222
1.40484220040233
1.50903471894833
1.54030858331782
1.50982298938186
1.65367192004844
1.68983229611975
2.10253223333356
1.89000078303071
3.87657296492343
4.34544516601079
5.64196862249034
5.47268400989915
11.4907131872396
48.3308735157877
46.1549818857835
11.5402764524127
11.8611205638084
44.466487426516
39.9870279853028
10.6999015105376
11.4956251972325
41.0193434836401
45.5604390721733
11.5826629788296
11.9821424646847
47.0155243690838
52.213766044169
11.7290813391712
13.295046471607
61.2218769773477
77.0480241527193
20.7175581015896
16.2116504943855
58.80810043152
50.9761248300291
13.446407153315
13.8773677980733
49.7383283470822
43.6189142052612
11.7505965708135
10.7300682535435
39.6229117495528
37.1713038101146
10.4254609306255
8.22674697789306
31.4276655984594
30.0126417283762
8.00270093996205
7.76023204211504
27.6900909197241
23.8654667898505
6.73831252562403
7.31315812728179
24.5629828010524
20.4120647811506
6.11792290330897
3.83058246443403
16.1769608320775
13.6650895447944
2.46337465199384
1.03665195890498
1.00859271737448
13.8942969920968
13.2922687054881
12.1490804504259
12.0440114215894
1.00303886176042
1.00998051259115
1.00309686528244
1.00125118096543
1.00309916013942
1.00944924530839
1.01169428635903
1.52890047822066
1.47064000217196
2.18601356603016
13.1957253225343
12.7852556383589
1.78345654136532
1.0057799805132
1.00165593923364
11.8553295090348
11.924712441918
13.2253386697782
13.9077553464356
1.00410876002266
1.00983911743384
1.00100361028355
1.00057600276783
1.00020844680018
1.00038917076697
1.00090333143005
1.00037988037695
1.0006688664059
1.00295654596127
1.00118875810896
1.00040136499741
1.00033782683006
1.00050341888541
1.0000928903303
1.00006680934153
1.00014447625866
1.00026508435028
1.00063991215753
1.00032117647664
1.00065348514246
1.00258013756577
1.07166423543359
1.03807399910606
1.00431295168263
1.00820675200716
1.0310297474199
1.02172715961401
1.03776104320507
1.04978099568124
1.07341029163459
1.06264362502916
1.17264790365335
1.21249975516564
1.2538309951585
1.21477763790756
1.26646831866415
1.30693620996226
1.39490443886187
1.34140866441418
1.4457082797628
1.50859568637567
2.54445215534477
2.29987365474012
2.55545416528441
2.71770897516118
5.716050465679
5.55462935188482
5.54900042440257
5.70322297903955
11.2128735282769
12.7850490050523
14.4795744462619
11.8629644758948
11.4757471023219
13.742211223466
20.4601082719122
88.6869917762201
66.3608658670949
16.2619197358249
13.5500072348122
56.9348151546169
59.4263387416232
14.0935842554262
18.8870588635992
61.7977875239113
54.0936580262678
16.5250567657857
12.1449052185985
40.7912865935753
35.3100235387515
9.438249428163
8.54474631530027
32.8559984270758
30.8744959196859
7.96007523420255
7.93404721872989
30.1847791151623
29.6299774131325
7.96601024257267
7.96729639214369
28.1142422618674
32.9194772396604
8.67829269020739
8.16491482697563
28.1825606838379
28.1862984267215
7.37791863259853
5.40097183884034
21.1722440090862
16.2155159496365
3.5985863301751
2.60652315995586
15.1428566313336
15.9003640663396
3.60405100127179
2.20296846803404
13.4830769901396
13.8094162151651
2.07575990831405
1.01103245721492
1.00366928964082
14.9601037406332
13.9559858097572
12.8202263514097
13.6187195715113
1.00311590975148
1.00858297565144
1.00047361538736
1.0002039170718
1.00020448582583
1.0004597536929
1.00048630912431
1.00019131704172
1.00018188338002
1.000555458095
1.00059827009711
1.00009409340237
1.00001798466242
1.00001488245229
1.00030876116445
1.0003712533551
1.00169896869204
1.00130966983075
1.00689458887454
1.01133541106419
1.03464249474644
1.02452618604562
1.03502709906401
1.04515088475473
1.0620422382795
1.05509428811916
1.0514766248332
1.05811462309797
1.08480827260249
1.07743982033395
1.0924241623043
1.10489388785342
1.1437399948444
1.12908824153829
1.17692254101283
1.19464706246455
1.25935171477755
1.2342907126116
1.26837331207132
1.29878202976805
1.55052165645971
1.48391010868434
1.50716124566112
1.57485815732658
2.59478300297678
2.36055910753396
2.43217379716909
2.65336129866583
2.85978597675828
2.73157040713045
5.65798024412036
5.82259475810496
5.80483663109958
5.63047144724752
6.28645304856704
6.29140521751232
11.7605116105782
14.2064582497057
21.1354258709717
91.9591362687876
69.550203976525
17.1319426646017
19.8734381850807
26.6019946522972
104.233601302885
77.2140313868879
66.8703595627598
15.6897745300817
17.7296427798722
76.8138209207733
88.3962693136502
123.37061110134
29.692176114999
21.2200449741775
17.0713493387942
17.0946371239381
17.1704631362687
17.1059058143043
21.6376151649783
29.1804106536431
130.14359101268
94.0060868104374
89.0070630610228
21.4600272104809
21.0682659575855
91.2619815269652
90.7908307431653
21.2190941130254
21.0892490607175
83.5106934075275
19.9964690941552
10.9823943603972
18.6445655809927
69.3338619816056
52.0214326779437
16.2977108827747
14.7038328055896
44.7544962686094
35.4428352171758
10.1453559537358
8.23669659880027
32.0900499554318
34.7838420300852
8.50713257644437
8.42565996038365
33.9514716529471
33.8920271540456
8.48338130045403
8.61937122888773
34.342658496344
43.7797353223354
9.61396274843883
9.96156382654452
40.1159763761332
34.0041284982096
9.07595734391649
6.66165396007688
29.7447210092014
25.3124864112573
5.90784603877081
5.48397492558534
24.8843325043542
18.5318414767905
3.65177600815836
4.79398248615423
19.0575884419452
17.777387067113
3.79993742871199
3.29533794453715
15.7710590853941
13.475220388756
1.81003925395873
1.45465340826188
12.5243337014227
12.4917285604428
1.42251557561704
1.00768312061842
12.8051956034374
13.6019589900509
1.00275573233933
1.00037829082306
1.00083328474921
1.00058437824642
1.00020971357507
1.00018312856307
1.00064771500023
1.00078620317977
1.00015249458027
1.00009401586598
1.002355541859
1.00065385590201
1.00039400312144
0.999970389846794
0.999958596750978
1.00159844884578
1.0014821668579
1.00643289121495
1.01643263301572
1.03614231657651
1.01666208844954
1.00216721146476
1.00435556231814
1.09085899031789
1.05110515117705
1.11513464823578
1.16414737434705
1.19405409130232
1.14054196602432
1.17634111634697
1.23059663441731
1.07665660800345
1.06423290200832
1.09447540675615
1.10756003251593
1.09029648728115
1.08187443167561
1.11792557829948
1.1266076431693
1.12026420266417
1.11168436858561
1.15792980684581
1.16825073852789
1.23215630213589
1.21423921400703
1.25005548464209
1.27505545872136
1.3031126700608
1.27125408106874
1.3159644308564
1.35628467779372
1.34834127245854
1.30880713845599
1.52767451291605
1.5987791006052
1.62259300481069
1.55521265251815
1.60386467802984
1.68081499738141
2.69901369729915
2.49026733753799
2.99040308336501
3.01934331747627
6.00000036291607
5.83049516171784
6.5635200162396
6.47609253936978
8.5958952952494
8.97255123100366
16.294871568371
13.5621322467213
8.16640862645637
6.72871706203693
4.58027129745819
2.67687690016089
2.306046327764
2.32177613514299
2.35631015932967
2.33220171671927
2.28530988177447
2.92835915956801
2.8932815461462
4.68895958273048
6.73466832073486
27.2547931853273
23.2913865081567
5.8270322429564
4.52275045404465
20.746282927878
19.2691098368375
4.16626101087705
2.23671415469541
15.2193035110591
14.3935153048019
2.06089124893073
2.00682369097881
14.3146663871847
13.4181493849115
1.77336063463414
3.19509553943747
15.6313133098812
13.7467333382783
2.0151140657894
1.01092670762607
1.0033164736222
14.911481015066
13.9176064865811
13.1720232632016
1.01405465189147
1.00858143473947
13.8527954395031
11.8119534887561
11.6874947401411
1.01081146959683
1.00694239850487
1.00032196344099
1.0008275504202
1.00079479576469
1.00030168752499
1.00047414440243
1.00135410503988
1.00233148251901
1.29708356381112
1.34593365410759
2.17889706107775
13.4147706239946
12.1989923184451
1.62452018052929
1.93146324196671
12.3458478651045
11.8566926526989
12.0248778871487
1.00250372998838
1.00901212378278
1.00233645634736
1.00054435402644
1.00177190859344
1.00907990940095
1.01908122589509
1.00181106101201
1.09894186772056
14.2885422220883
13.9182956343459
1.10836625628016
2.52326903195574
14.3626964061449
14.3825722146759
16.1561038919432
1.65865706146633
2.34044656289147
1.16160621017666
1.15075713413057
1.18522596960527
1.16843697920108
13.8977378725686
15.3720833299395
15.4957265138949
13.6983156329235
4.46603972196525
3.90309241402066
19.1208743804726
17.7117583910495
16.7646112545103
3.54534396867801
5.48887156504246
19.9951530383489
22.994716740295
26.1277224500698
6.04561984549312
5.71508126328991
4.21565059496002
3.60838443327999
1.36608125774741
1.47475473994077
1.48592864565627
1.37383468296006
2.49403624433216
2.72828767961916
4.22171903457921
3.61831155096242
5.69179454208774
5.70814801919608
25.5115311984588
29.5615812932545
28.0192103185259
5.72409632833829
5.83292658186462
26.405178982025
26.0436845050424
7.51058113099249
7.73388318551435
26.9080725846808
27.8526427576297
28.7697596936907
5.93041315998037
6.28444613725672
3.05109896156874
2.69679800040581
1.41545866087493
1.53814227039794
1.57062128891346
1.49610423989384
1.21718147648367
1.27057460388519
1.31989564720525
1.26781478973925
1.1333599262062
1.14549988766281
1.20120298145974
1.18872283532151
1.16867798381042
1.18158629214608
1.25430467340457
1.23322353278281
1.27810541119085
1.3065385556575
1.28028533960436
1.25423921642096
1.30749351683946
1.3430891867974
1.33149475023616
1.29709010200075
1.35061835003102
1.39990062642521
1.41981082307279
1.36603621079908
1.35682813322768
1.40893997953803
1.6542909833054
1.57504032009873
1.59635092011882
1.67404474978538
1.70879567478931
1.63257929603351
1.66311498251796
1.73176851113982
1.73405778906221
1.66222220544144
2.49199792972181
2.67685866317589
2.75329055297524
2.56732043559695
2.99968375155186
3.0536442417877
3.07471167831166
3.10665997820833
3.44972331555931
3.08125798772614
3.03751830623261
3.00841072311613
2.98459731833209
3.03073059205828
2.712989909579
2.51600752344354
2.48474553511831
2.68061336617077
1.70075619384258
1.62563594568603
1.62942224824359
1.70190800114946
1.73213561565517
1.78719379512051
1.8360885438674
1.84980388302363
1.85548531201965
1.88641842629984
1.88264631346946
1.8891627984957
1.89040828954744
1.93531244706843
1.9260022829533
2.01316918862503
2.20801092963738
2.21757227666929
2.51759345313834
3.14139630597938
3.39008669573168
1.80317197683749
1.84647607518916
3.86535837056407
19.2761576475671
17.9426958157846
3.35860140939396
2.71748951262765
16.3470518470987
16.8165888103659
3.21554527672284
2.28018573549694
15.2089441070585
19.0873329528997
4.18720600476707
3.6357676147255
17.522559189601
17.8778498071571
3.9871431576405
2.90014631311989
15.8586415280543
16.8111266448889
3.91394943804122
2.81905576118651
14.2387177295124
15.3744269822604
3.36653326655528
4.43070478949094
17.8733669366092
23.1681031097339
7.02901440459929
6.12993283178266
23.0536746658248
25.4918521959273
8.16587083176542
8.72456217245797
26.3665865403044
31.9315983883974
9.64375649097443
8.62603132056099
29.247027683886
29.6534819984711
30.7217636870977
6.02750180241233
6.56828389006916
3.18600034416281
2.83105885489198
3.04509088944103
3.39979711879236
1.6692941840307
1.60665922348898
1.79742025519893
1.87569697151619
1.39719543624364
1.34284538650792
1.44659422239813
1.49916996610021
1.27829226766308
1.26078192595116
1.31308202438059
1.33798148642623
1.30651065161855
1.27813706191714
1.34012129174107
1.37867602149565
1.37381036442629
1.33520192870585
1.39882296697727
1.45469796547219
1.41774762268741
1.36472395428916
1.38939525064778
1.44423945023775
1.48412074886601
1.42858561466533
1.41916239344822
1.46567004727845
1.46984263574841
1.42142068232146
1.43831636568722
1.48637325375395
1.47881966606651
1.42440991993249
1.4174853041162
1.46477013413452
1.46652859857679
1.41611321004149
1.62850536929515
1.69824161236409
1.73320071165241
1.66557955692384
1.67588038299822
1.74678042925067
1.77669329886869
1.70341708415682
1.70347184461802
1.77198808671021
2.69252968312126
2.51147498452569
2.62398469214093
2.80158213571052
3.11027943161554
3.04451222199308
3.34458539707468
3.24083445937812
4.60433088914027
4.95708893392813
5.01414263182923
4.67061515340486
6.56174031898221
6.65551419054458
9.16282054726062
8.73808928557183
15.6629277881488
15.6382136631249
26.2990838063161
114.900825033483
88.2619294359471
21.1014975352041
21.0779191529651
85.7044249206617
84.7914675292671
20.5484912593759
20.8535242921957
93.7567425744271
94.9403006280013
20.9120322366046
21.0346928891899
98.8386902785202
82.0036379738359
21.5304627404975
23.3430757926999
75.4339079216381
68.3878036401615
20.7808610003887
20.0218551849407
65.6384957856627
60.9858774574703
18.3155388552879
16.8444117278241
55.1129986639501
49.3515294193057
14.0913041021954
11.4712983218055
41.3946217798171
36.8742447807092
9.46480750907172
9.79562078980729
45.534509353951
43.7633149713653
9.44713964076966
9.4266984002259
42.6915524900961
42.9387753323238
9.47824576549808
9.62142375031785
42.3283720329767
43.7499312843545
9.73649786140429
6.95281919999884
37.8520509504364
33.3999746136724
6.88012454140755
6.72154545269137
33.4564393635286
6.05839227462925
6.74077613127358
6.93109600721721
33.3617212831887
27.4240403971021
6.41128902305911
6.33386807977728
23.4702291065033
2.40358539324987
1.15072894484742
1.1229191339602
1.92930910764908
5.41153650872652
20.9369244665956
19.654207912415
4.06031318020778
5.85345938842011
21.5028632039469
29.2666167131041
7.77998780614068
9.11660069520033
30.0888867728431
27.7965304200527
8.0771767589655
7.87822628598866
29.0677993729343
34.4512511965011
9.92709612347236
10.0257811062712
35.6451136129101
32.199696563912
9.24002794924505
6.6488844868871
6.06316551825986
31.6722401876651
30.6288258406715
34.2034481020046
35.4284227140463
8.06843353873143
8.93225787044289
4.01057064460088
3.56818372244476
5.15567558419889
5.79221238151984
2.24056668145076
2.14086387526479
2.22060913177314
2.32249484361229
1.56282390116584
1.50513945715304
1.50770958545025
1.56327980088252
1.33634591072566
1.31251521535135
1.38346351655457
1.41955011914039
1.41589710411477
1.37999249369731
1.45890939175084
1.51464280316072
1.46789626717378
1.41031093401282
1.44682735308534
1.50222176259701
1.55030373120063
1.49756167670689
1.48144493914543
1.53294033514422
1.54340370863606
1.49153665162391
1.44684039453085
1.49743194074477
1.54920897282112
1.49837121240397
1.4736772533979
1.5293083920642
1.50934965507505
1.46234748494102
1.46475651714391
1.512112480253
1.52922797365639
1.48406802841528
1.46656762909653
1.5197894818144
1.50574366061501
1.45652742898263
1.45612192857349
1.50386741621692
1.53963189066607
1.49174477836357
1.69809488281179
1.76952339577541
1.78500986392323
1.71514326093201
1.74049267715801
1.8210485760402
1.80999066272486
1.74136355023468
2.53140195798143
2.7134532893366
2.8591386465555
2.67961592287453
3.10255306467307
3.17192288967195
3.30216908475951
3.43809969533907
3.54161996326701
3.37424191096289
5.30676621336913
5.61919496487272
5.61764329787326
5.29442528147894
6.69718583622617
6.78201433699005
9.31449294273455
8.85981843495587
14.8040271009144
15.3029926118003
25.1386934272599
105.907825033895
82.6278323143274
20.8314776907828
20.839787618568
83.4490522275139
107.649555083908
24.9305337388181
15.2783987643183
14.6695493469244
14.7941978532976
15.4229680310269
25.0823955239005
111.667856096621
86.743502900917
21.0765509385975
20.8770551231942
92.8505740765603
87.6953185408216
20.4338659428445
21.2932818226351
99.2560180830201
106.532296031616
22.4780845778751
21.6113613102457
107.00752858444
99.608858312438
27.9466612907784
31.5662849608048
101.196732612881
88.8113366555327
26.9284922801533
26.258569112496
86.5177688810249
77.5255412678648
22.647513050848
17.0800099528697
63.9019257877655
77.3719655956524
19.1694099954056
15.0592069612757
53.5877996128039
55.2264799446658
13.5699016602047
12.3506822490513
51.4789452331904
47.940814363731
10.64495405192
9.90383279496777
46.1181030267313
43.9741402764894
9.69111786808215
9.62682845722319
42.420155015241
41.6815970126581
9.58384156459524
6.92750030455501
36.0981417514379
36.5490218323618
6.90288592407011
6.78450452659778
32.6790431464409
33.1546113953228
7.36962138811986
9.26047073262616
31.6578852542625
36.785787097194
9.90345323118576
8.88397369718154
36.7242849067967
37.7288018082717
10.0596001775037
7.91668784006401
28.8086401674993
21.0691330335468
4.91677208525868
5.69771639471134
21.5422946144638
19.3479132912439
3.98453568725889
3.50960409088182
18.4821598529624
25.9564909001878
6.30967554633782
5.73609944759641
21.8903659138218
27.8881773722669
8.48232298371501
5.79241150761037
26.6159234681134
25.7942340138616
6.31562240308653
7.01511588900293
30.0671366132428
34.8956892998139
9.25772597673563
9.2703544472176
34.9086617598525
30.4338084354703
8.29756485101368
8.70155239934189
31.7660567507532
37.7314364682114
10.7873297046499
11.7812088046711
39.9688572674976
37.9875095558952
10.9497077116581
12.837860684894
48.6198481174765
42.8825121707297
44.6081107044779
10.5316133424724
11.6121073197752
14.3894901680675
14.0405860029278
58.584838953965
53.7019472058798
59.2474937603433
15.0332199682491
16.2773951898693
66.6288028312805
64.4777438973606
77.3673683186
19.4716847463378
17.7007825417456
14.981568099179
14.5310042177412
13.288509122756
14.3998355000575
6.01069721221155
5.42206316661538
5.40277639179866
6.01687040059153
2.36446059599435
2.24329975807083
2.36835703683124
2.5017773777099
2.41933609157684
2.3098651297498
1.58953405641222
1.66102875772752
1.6472767713433
1.58201967258202
1.67528984295147
1.75458585524842
1.52920347487368
1.47392910042223
1.52604019798334
1.57641808841584
1.64863215504173
1.60121381187008
1.57643913320443
1.62945022382977
1.63271352956554
1.58046556981469
1.52414016825437
1.57759535927898
1.65867640606822
1.60189810822131
1.56051660174221
1.61617343449327
1.58811010777492
1.53665622861318
1.5466568042992
1.59982811838739
1.65792984452909
1.59919336061603
1.5454723168564
1.59936947712921
1.57227101035043
1.51403725933919
1.50020493328935
1.55049413975478
1.55169661435723
1.50323060316741
1.52559016732368
1.57085085649202
1.55941066276682
1.50523057480731
1.49203374780455
1.54559269642948
1.58328413242093
1.52504580112797
1.52479475292542
1.57465995155349
1.8059712691347
1.72857072507497
1.75250137210082
1.8270094443117
1.86559302562399
1.77786611797111
1.77968160839144
1.85459164273738
2.73901954858706
2.55482058977151
2.73800450194549
2.92045918859105
3.24607421490091
3.16564524172343
3.23222869592389
3.31862784906302
3.43416989517537
3.62019211962371
3.7020311424825
3.50839071678047
5.65312048418852
5.99627594167807
5.96533405559518
5.59570261278971
6.88957042817494
6.95250512029815
9.5643180091895
9.10158392593248
9.46072824098675
9.89688587994495
10.2958719443419
9.89490313954959
15.0305033423508
15.6801059867429
25.4060242908581
117.243577495388
91.2141401780195
21.4842647835221
21.463547779826
98.8839340582341
114.925940861222
23.6826489146147
21.9112330017315
115.596347895363
115.725358742614
28.9191513908511
36.5881864533256
149.084638452082
151.297253718543
38.1014354870037
39.0938638812053
135.712081790417
117.779754896729
33.0128005873785
31.8656224435044
115.961928831891
121.703644193653
31.608348175027
26.9263116230582
109.635463920052
108.377491079261
27.4263752921665
20.6301773290827
79.23727623848
56.1019959022243
16.6574321880671
15.2189686742933
58.1735005158786
53.6536352899232
12.3702506418237
11.2022566024711
51.0063676584684
48.4882511466548
10.408650396585
8.81803919289201
42.6580087778652
40.9605566255259
8.19844246514493
7.78293037903293
39.9038584925132
37.9252079442057
7.59376607213262
9.18453598307217
38.0078351926498
44.3573141813736
10.6527012417662
10.7414491996241
46.8505959841261
46.8245719267245
10.747581538003
11.1384044051305
48.1358288177006
49.9254381298531
11.4953336804409
9.65690647482606
38.2753651083617
39.8612589420187
11.1539061373021
9.36135702849747
30.6160464582963
23.3428860506528
6.0374440555603
7.42839793290104
25.7991755234346
33.8725590194121
11.0281125762181
10.1021035562483
31.5739721950726
27.4768095830496
7.19365057411208
9.34129163001513
35.3441877413251
44.8108005548983
10.3900702894078
10.0146161531657
44.2337339189446
44.388626348281
10.0998868652283
10.1131832939865
40.1741546958908
35.55286921497
7.372911330316
7.11808430304901
33.4619892514666
40.4761282295959
10.3342636583508
10.1825979307324
44.6269307825941
35.7179716547619
9.30192129552366
8.85418798611436
32.3148148264593
35.7568185808565
10.3490836827036
14.8275415203388
46.6002921601242
51.2067281721706
15.3878539287567
14.8728934007351
60.18829375783
67.9657697911653
17.3408624606704
18.356543585751
75.3181998021969
79.109093661693
18.5794452079193
17.3189398097901
71.7682003080493
74.7442582779975
91.1131095335425
19.7554560482003
19.9237689629553
14.0167364946977
13.7764366418683
5.71201972466163
6.32159618478688
6.15020858185884
5.5808652364661
5.76851315987388
6.25446065134012
2.66834351066686
2.52262826278222
2.41654676906241
2.52640448780676
1.78765474208495
1.69947980633118
1.76463490897908
1.84498070631703
1.93634058775418
1.86334126130328
1.84341692339058
1.91192930619395
1.87431564206373
1.81579379786149
1.63073633784856
1.67785883197456
1.81256616106756
1.75683176364032
1.71264180388518
1.7591647935135
1.73666401266679
1.67882471134313
1.6680617961879
1.72633862582791
1.85444650919181
1.78698461153691
1.6954390779671
1.76005511940658
1.69773419610298
1.63770098265914
1.59677577511342
1.65182574994156
1.73033314680802
1.67350757618082
1.65069165757066
1.72271660583208
1.64903247017991
1.58996120347321
1.55094699811802
1.61431409611033
1.58761705942897
1.53359151750684
1.53615665765449
1.5878321478693
1.6105033201579
1.56271137956333
1.5404136732613
1.59755732136992
1.63418166415255
1.57458030742484
1.55670363086235
1.61804858395706
1.60870789060012
1.55656738943278
1.75885748307844
1.841098992889
1.87156761926047
1.79087722303867
1.8166109605718
1.91081222565202
1.90137810852826
1.82004888944449
2.58207386107246
2.76731325228013
2.98377489312338
2.79998936226434
2.86306424919274
3.04818227472226
3.40119640417532
3.30279096765598
3.37563444886894
3.48085979876427
3.57559735829311
3.7852943064718
3.87396268956826
3.65509413724093
5.88921946224043
6.27134003701294
6.23232362586247
5.82259139298137
7.13497935111296
7.15080995200669
7.35248083566485
7.42234142166917
7.73339190370956
7.56120568797814
10.7434404646774
10.3807667258902
15.3492236426519
16.0254365478853
25.8655809927605
123.530225574244
96.1030194802422
22.0367140376568
21.9819174550254
105.409130147674
123.816683428911
24.6256481038983
22.3180522688657
122.772799452376
121.861235227651
28.2940839885147
35.3439683414189
154.095411662995
147.794617661272
37.3230601862695
32.739041954097
119.0655540693
126.596235426145
32.5702709182169
31.5419107843006
126.726225834801
118.372210621731
31.3797315314307
31.731909918599
119.770660600976
126.885132538651
32.8349264384043
27.1997625550929
112.642521483031
124.805266536288
29.8510730754584
24.6316047531813
91.5132866875294
59.383079921632
19.0594121615213
17.6477260299954
61.4361871690072
56.4753437195056
14.0565218432398
12.2446849520662
49.655278179752
47.0353832453058
10.7948024499516
9.66130052858814
44.7061437512722
52.4871925054163
10.9610252124635
10.3279527188997
50.1452095716813
48.30695089517
10.1035667376752
10.078678846439
47.437835487945
9.66090136515181
9.02118720876478
9.10297041723851
5.8482592262479
2.50384827910936
2.37956330954154
6.82701590261745
10.8595828304324
41.3709657796879
50.8294461478244
11.831516044026
11.3555698163489
48.5720546750288
46.2378271402093
10.7666336332071
11.1400693870591
46.0316014254562
38.7654068453265
9.3151476991037
12.156794200873
44.3273262177401
42.7811654674202
11.1003415780063
10.4694856577361
43.0428028279335
44.1932982599339
10.2525164607589
7.49738983221231
39.0521741436556
37.8088313300878
7.84692567085514
8.44886250312201
37.6655991351231
44.6052659536726
10.4860528502443
10.0746108802046
44.2625580072506
44.7394664339864
9.87490880525496
9.74322177323713
4.62785197471609
8.3624846189211
34.844415538596
34.3532786144348
9.44315526053823
8.71891199462456
9.14203032122347
5.51994075353584
8.99685568498449
36.0220082695954
37.5849926461222
10.5114324795087
9.11972110555227
9.88046487281658
11.8419234572871
48.1652812697192
40.5343579155298
10.2786757968076
13.4258201059024
46.9323937570502
52.0088337898802
16.2208244514487
17.2606671478452
46.7572966548464
47.1125968586389
18.4836398254725
19.1360643227251
46.7309803055059
46.7946452313764
19.7679525061625
21.8826961280344
49.1135754262649
53.1258731558095
21.8632838262514
23.6333834699083
61.942696600302
76.5321497474805
25.6691479417273
28.9393054163234
97.1590843164969
102.168937690775
29.8953676583569
28.8805138489105
93.3753967969459
104.533452793345
121.863853464226
37.53109991233
34.0305369606745
21.3211723047683
21.3743088799393
15.8642194457416
14.7247855440766
10.0094911438458
9.65288602537182
8.79835041789112
9.42854578679483
7.92546615871048
7.3618185832442
5.6268417444894
6.01422534747075
4.41747610681681
4.23488141558555
4.22547140008627
4.39436087964425
4.32481589569068
4.14932055699926
3.99595785452447
4.17938282816602
4.11476046132053
3.90079471057018
4.09041293801957
4.31319936954788
4.49956401601929
4.24496058195106
4.19605606473884
4.44256174630859
4.37803005594098
4.11484998342965
3.94499804707705
4.1775585224366
3.82892966743858
3.62462390601431
3.23783793531864
3.41172867439329
2.89836798094802
2.75686431489359
2.43757240618495
2.55063285620168
2.25357811461151
2.16816886963151
2.01576122503227
2.11989545659176
1.92027875878494
1.83742575264713
1.73139992948319
1.81789741094997
1.73317620624696
1.66856926059075
1.63380666750206
1.70165194786186
1.70890105880997
1.64866347807037
1.62969834631856
1.69718645276021
1.67924281519458
1.60930573036014
1.613516956297
1.67238494537853
1.90179879509901
1.81410840536232
1.86502303206861
1.95941358966664
2.00145836085438
1.89565028489725
1.90532534571424
1.99851603886081
2.82247173406361
2.6373712636641
2.92669849306778
3.11212128124248
3.17513238927916
2.98910356647855
3.45199067330523
3.56997364228804
3.65477663186454
3.52903401117949
3.96537482063813
3.7305174945887
3.81325489017361
4.06200581082572
6.51150960393486
6.10802228451739
6.03488112856937
6.46585700173475
6.72333869235161
6.31651856471354
6.22884536198754
6.66682103195798
6.90671264550646
6.49966853013777
6.38945031806646
6.84607599390202
7.79110328900614
8.04194694588585
10.9002110094432
11.1977132562742
16.4672042728072
15.7601055873036
26.1874184143965
29.01514656011
136.473858863516
108.055550203473
114.357259645714
23.5685030077266
25.2229124118662
133.375708243676
130.586851923969
22.8103434170021
28.0308107845614
129.340666908976
162.742149882621
35.0873851520678
37.0004072783442
153.093219121158
121.624416198413
33.2434077214221
34.0248738041153
129.458093592883
143.179955028883
36.9496026344777
37.4270315585328
139.598813644053
163.592435497278
47.8376308315066
32.8705608239608
147.657563930115
147.403317627749
35.9514174121456
36.4105931593481
115.002347079923
97.7608035995809
27.4227284399999
26.1313002073886
82.2101751027898
60.2700166291158
22.6672434543495
20.4122833044932
64.2540826435209
59.4916452882679
16.2723376726864
13.9797291404837
52.649320204303
61.8998661918694
15.1774986093077
13.3722071975894
58.3285504618661
55.2247623179068
11.9594702520635
12.1994301608598
52.0853670163529
54.6146024472033
12.9120139845486
11.1717733066104
41.1450255683731
43.7450414485204
13.0084429321977