/*--------------------------------*- C++ -*----------------------------------*\
| =========                 |                                                 |
| \\      /  F ield         | OpenFOAM: The Open Source CFD Toolbox           |
|  \\    /   O peration     | Version:  2312                                  |
|   \\  /    A nd           | Website:  www.openfoam.com                      |
|    \\/     M anipulation  |                                                 |
\*---------------------------------------------------------------------------*/
FoamFile
{
    version     2.0;
    format      ascii;
    arch        "LSB;label=32;scalar=64";
    class       volScalarField;
    location    "200";
    object      p;
}
// * * * * * * * * * * * * * * * * * * * * * * * * * * * * * * * * * * * * * //

dimensions      [0 2 -2 0 0 0 0];

internalField   nonuniform List<scalar> 
209453
(
83637.7073403913
83652.8492626591
83674.5332667481
83651.6851521596
83637.2187510472
83625.7499227607
83615.8079408568
83603.5516702903
83608.4072158622
83616.4789714535
83615.9329483795
83613.2349867397
83613.2408132629
83623.9103157126
83623.4355986649
83632.0733005061
83635.9119712424
83633.8347896091
83633.356347034
83646.1887129152
83654.5571965962
83660.5718004016
83646.1027000278
83636.6327224333
83636.8767686314
83646.8789297344
83646.447554736
83649.8398133539
83656.4343547052
83654.8106646732
83650.0273162926
83653.4253567561
83654.6998781714
83653.7276809788
83652.5209405305
83650.8708212418
83656.5354365629
83663.4758013754
83651.0182234901
83650.3274681057
83663.9911428716
83651.1032368704
83645.8938474725
83651.2466251779
83670.5363996555
83612.3255993002
83619.9495889728
83595.0685349644
83567.1814008871
83574.6987364708
83591.0933773344
83587.9125058749
83563.5975252597
83653.2187918932
83661.5842384295
83621.3780796057
83611.507098944
83605.5094496618
83605.7475546693
83606.2636258178
83605.9227785793
83604.9140287621
83606.2955846318
83600.917645408
83600.8341409904
83594.9057664137
83593.3312630838
83575.6127560193
83591.0332866448
83608.4612008497
83604.4759340372
83623.2083865437
83660.1460961201
83654.7479954575
83634.6061396891
83613.7048347852
83617.5678448076
83593.8924766253
83582.6077131649
83589.8053052602
83596.2968738042
83600.7059119698
83599.6481301409
83600.3977646551
83602.4111939455
83603.1499682486
83601.6851676799
83604.234774794
83604.8132896949
83607.2354718806
83607.3034442114
83604.0989536784
83604.59681359
83607.4472960972
83607.7266279285
83616.9711861054
83615.948375648
83625.9556647661
83625.5347617705
83636.4854491101
83637.5073832761
83648.268538417
83647.3740793388
83659.4469662633
83659.7573916602
83656.0737931753
83655.9006926646
83668.2632118186
83668.4213336966
83662.304255692
83661.6514591316
83659.7152210178
83662.0995858382
83662.669198058
83660.2213352926
83648.997125608
83658.6937214312
83659.9177597355
83663.9640645698
83681.5850945943
83667.062832757
83666.880777757
83675.6933189645
83673.9043865742
83670.0430348504
83670.2921193576
83671.7659699679
83674.2722923665
83674.0205585517
83672.2052623415
83672.0209260069
83670.4510167234
83670.4906402622
83667.9483238293
83666.125608026
83663.8636713436
83663.4206108749
83651.9083244292
83652.1839591878
83645.2671267407
83644.1050674312
83638.7544215169
83639.7239729809
83638.0394873718
83637.2258755548
83639.6981202325
83647.0963107967
83648.9447340972
83627.3722512672
83623.7887249661
83633.8552153451
83599.272938245
83603.2558785177
83595.918255746
83593.1044581496
83581.9486347126
83591.080950304
83601.8312019919
83610.3727244725
83630.4937549594
83604.8078304225
83597.2360239073
83615.2250245225
83602.0944443342
83598.46991332
83599.9448381602
83601.0972064391
83604.416705443
83602.3755929125
83596.2692163933
83594.2567386503
83596.5390456427
83595.9937516363
83596.1073783968
83594.470083495
83595.6099707878
83595.6469616545
83598.0816374207
83606.8010972365
83592.5530424441
83590.7673846026
83601.1233203106
83595.3039861319
83592.9677897271
83593.4395975065
83594.0940940053
83595.8281017745
83595.5199671371
83598.1402565602
83598.2738436417
83600.5132794452
83600.5643917808
83601.1901687327
83601.1752808044
83601.6346571944
83601.5296265415
83598.559391334
83598.7741800236
83598.938126763
83598.7317099997
83599.0801926789
83599.2760095466
83599.9746610459
83599.858052987
83600.9577116395
83601.2506879686
83601.3938165618
83601.1834033937
83607.0793376982
83606.9677152383
83616.4171936149
83617.1565270407
83624.222680332
83624.5089301178
83625.2743410804
83624.9098145614
83634.9401006675
83635.5435464002
83647.5350617523
83646.8906883851
83661.4654503924
83661.7196818992
83679.3420583194
83678.9927774971
83673.1216649727
83673.8240637783
83685.0751456674
83683.6240529204
83681.0478338948
83682.2200051989
83676.7406805294
83676.9680042175
83675.4442915077
83674.7356314083
83677.9575322199
83677.8395744826
83685.2503373526
83685.430991899
83681.0019462042
83680.0205645358
83677.0127745807
83679.647153637
83677.5533128891
83670.7759621446
83682.7144131231
83684.3277545069
83682.3777581661
83682.9362564125
83682.1531966094
83677.1791487627
83661.5269639648
83660.5342796714
83653.6441823204
83653.7847458475
83645.5926305588
83646.2613122093
83638.6421744125
83637.2678877607
83633.3651914122
83634.7019950361
83630.825843205
83630.5591205542
83629.0103539573
83629.4569787262
83627.8429617222
83624.7543215072
83618.3160853449
83620.2630857328
83610.9950544761
83611.6016544649
83599.6900170368
83590.5565312689
83595.2487262115
83597.7901548158
83596.1147139573
83594.5679641113
83595.9276541129
83595.3371854707
83594.412409026
83594.2380859178
83593.2717555766
83592.705113083
83589.5679163978
83591.3964859297
83593.6034895099
83585.5618106061
83585.5084546044
83589.4952816679
83588.8493073009
83588.2944227202
83590.8283188435
83590.8001496936
83593.0891086022
83593.0853883585
83595.5061231902
83595.4027801693
83597.4369353122
83597.6847641072
83594.8787555689
83594.7227450265
83595.9631285405
83596.1893828202
83596.3698726367
83596.1178988279
83596.4351850588
83596.712720068
83598.5492043656
83598.2626112459
83603.5306230779
83603.4205317874
83612.974309925
83613.8480571719
83620.5767667989
83620.8355714661
83623.2633056109
83623.0011483215
83633.71974795
83634.2578453547
83635.1866156699
83634.6496021891
83647.7097683145
83648.4038247603
83664.9451381135
83664.7076809944
83685.9418664301
83686.0312206687
83704.1618314088
83703.2813261342
83698.6467306262
83699.5816809548
83693.5869423575
83692.7588229732
83688.9335309559
83689.8151724371
83700.720305632
83700.6045622042
83695.3129026408
83695.4273294269
83690.8564855932
83690.2405792116
83686.6039129083
83687.3107407012
83696.2228805763
83695.6026073583
83692.7734027803
83693.3339044091
83689.493724231
83687.1568471426
83684.8388150162
83688.3818585856
83696.4617560059
83696.9371135108
83696.1228648394
83696.3670279284
83686.9171377884
83691.6804659293
83695.6993072627
83696.4323979825
83708.0527865657
83701.978001169
83699.9663090142
83700.5477234702
83703.8343361779
83702.4999155155
83706.707179875
83706.3255761859
83699.1417027837
83702.1615610724
83699.722933121
83692.5588161015
83694.9045002392
83699.9592674764
83697.7912691745
83696.1719699746
83693.4358412299
83690.3648022794
83693.6000798371
83682.7076762963
83699.3042743269
83692.8245556624
83677.4523157593
83667.3536594362
83659.8221501233
83665.9205278921
83648.4411700688
83646.0604286192
83646.1453115221
83645.9839818636
83641.6294486564
83642.1201035273
83629.9239553411
83629.2894316483
83628.0836407458
83629.8136901693
83628.5818206624
83626.7671734309
83624.9163512212
83624.1322253646
83628.1282796543
83622.4492663458
83622.6283128226
83627.1605153438
83619.3041843002
83618.5201083258
83612.3612665166
83596.6321102677
83603.1140665815
83606.0395579546
83601.5158244253
83590.8959257475
83595.2758522928
83597.6948219811
83595.2721342338
83596.3901686445
83591.5262283561
83591.092095152
83593.4289057873
83594.3693752951
83590.5080550069
83590.4517523219
83590.358839455
83590.0471290336
83588.0427563626
83588.2463017374
83585.8368011201
83582.1895717003
83585.6235246581
83586.1852667728
83588.2772810948
83588.1974747661
83590.206839526
83590.2738200169
83592.5661148983
83592.5888027702
83589.3793919767
83589.8054553843
83592.7722596972
83592.4716089832
83593.7960264341
83593.9356170228
83594.2559634606
83594.1937349031
83594.84758215
83594.3863456171
83593.2558164184
83594.4366959893
83588.9911271698
83589.4159318121
83592.7217406956
83592.2982067915
83592.5102782933
83593.1868096981
83596.9284070049
83597.0374907218
83607.2827918639
83606.7929889841
83612.6484299616
83612.2510699076
83617.3855629679
83617.6293367766
83627.6808452935
83626.9745151822
83630.9496529225
83631.5426837706
83645.7590473869
83645.0603253655
83647.5556316449
83648.2618530676
83666.4386285073
83666.2469544748
83690.7270974512
83690.5802475392
83714.9293936678
83714.345820352
83709.7949225044
83710.68605166
83728.1923657903
83728.1786407365
83720.8114482748
83720.8241698293
83713.4496759534
83713.3589436503
83706.7647008191
83706.8282781408
83720.0712275965
83720.4584605684
83712.7260609257
83712.3056811736
83706.9846505487
83707.1597603537
83700.9216917688
83701.0566214798
83711.6048283423
83711.6213383689
83705.4640779429
83705.6379207422
83701.3115473471
83701.3155102073
83702.2871647482
83698.5657495199
83689.7435393973
83703.8802844079
83695.9848889289
83681.2510399012
83668.7484006099
83652.8013437121
83628.2054659948
83598.6624522181
83571.8681228728
83542.4999597901
83525.4017824185
83527.1224505874
83557.9429700223
83559.0906749922
83575.9217160844
83573.1611658993
83585.6139925321
83585.9855039119
83580.3628078263
83578.6149361517
83586.1027338898
83586.8958461283
83583.4534973898
83582.6785018968
83588.4858622228
83587.9672414777
83586.2063642823
83587.0695440609
83587.0775394064
83586.6390364113
83582.7766405987
83583.6456566802
83582.6533376527
83577.280385172
83579.4432589453
83583.0895069079
83584.1078172781
83585.1363534488
83586.8461980818
83577.6345491994
83583.6250385013
83584.9022467382
83587.5629342334
83587.3431361632
83585.9579041168
83586.1536180146
83586.1988031258
83585.9674322743
83586.9182996378
83586.5839024616
83586.01251852
83585.1490912163
83583.8890817024
83581.036576064
83584.2968884905
83583.1087753954
83581.5263015944
83580.023029895
83592.4607186545
83587.1360046016
83584.5621010321
83587.9746111151
83589.1119443815
83591.2507368182
83589.1930182401
83593.1974148887
83593.8553458831
83604.796129955
83636.4487241301
83633.7474450346
83597.0083985307
83574.1647589997
83548.0430812695
83560.4871721682
83577.8327514195
83581.8480934475
83577.0176121333
83594.3721344856
83590.6026090437
83598.6701785001
83602.3849458343
83632.6293534618
83613.4565893061
83604.1593968079
83638.1933107157
83580.9225929438
83583.9073217573
83576.2464753536
83570.2184850039
83561.5827022738
83576.953200481
83575.9377923381
83551.3851393882
83564.7004178026
83577.4454462517
83585.1830973679
83581.5222312265
83586.3812863061
83588.0689053136
83589.2833491867
83586.8884004731
83590.7075314936
83591.7054109064
83591.0137333332
83590.743501608
83587.4830950844
83588.6434111816
83586.8768920515
83586.0207199971
83563.1218097405
83577.5073101613
83585.0395410102
83594.6874886407
83593.7200378954
83579.5008970925
83586.5677721521
83598.5577472809
83606.590821851
83619.2864957144
83606.3169370083
83605.3336351119
83606.2729632465
83604.6176831532
83600.5490575009
83601.5467447846
83608.0262994812
83607.3875453766
83614.902126563
83616.2997013694
83621.112849658
83620.0442392066
83630.8467389678
83631.8761863833
83641.0670119451
83640.4420481719
83658.2863556349
83658.6353403741
83664.4774127448
83664.1598695949
83690.3259943997
83690.1952716815
83719.9681074029
83719.6857343517
83717.5737367346
83718.0435885762
83740.6382515015
83741.1024576857
83735.7533182632
83735.4919963828
83756.1201143145
83756.9602344508
83747.0943063754
83746.2608735516
83737.4524390623
83738.0529507054
83728.4495575502
83727.9049702779
83736.7048581627
83737.7992145589
83743.1633180147
83743.3139463341
83738.1033353369
83737.9853598028
83732.7953131816
83732.9701417979
83728.2651543008
83728.0881331474
83724.6269192395
83724.7480446137
83721.4846506323
83721.3866869654
83718.5888748994
83718.7063800218
83714.4932251137
83714.6655972011
83714.5233999456
83713.9316778169
83717.8664814771
83718.571073758
83720.4664738007
83719.4760079711
83723.148430667
83724.1762589839
83727.5898269849
83726.4665488932
83733.3737961023
83734.2432031865
83738.6661970616
83736.7546467933
83752.297684992
83752.0432123916
83748.9238484246
83747.3208473098
83745.8260934251
83742.9012556272
83735.3915864742
83730.8774345181
83724.1918359809
83709.2797863894
83687.6154516451
83660.2911898377
83622.8937963235
83580.5734641978
83550.7175789767
83533.9309550835
83518.013210311
83502.8011139822
83499.6909765933
83541.9858979457
83545.1903095951
83567.8908610746
83565.2262782054
83558.4440429103
83560.2174255801
83575.2426403486
83573.6028303984
83570.9151854684
83571.59608635
83580.9118481364
83580.9654149325
83579.5867438224
83579.9334362641
83580.2271935352
83578.5359201143
83576.9924665117
83580.8771676488
83583.1979841959
83580.6855570588
83578.1615933717
83580.5911437442
83582.7549073749
83583.4485324586
83577.0787150776
83584.5060046844
83595.1152575223
83624.5117132825
83575.645792478
83588.178447541
83591.3951274513
83566.1990190506
83642.5361613133
83618.9331139436
83617.6223368211
83638.1999775957
83625.5858993223
83620.3676077173
83613.6113395287
83613.1232090167
83608.5927135799
83609.6822155685
83613.973918379
83612.9064977094
83623.4068778684
83624.3482186297
83631.7619578954
83631.029338654
83644.6900802244
83645.3772719277
83663.7174716072
83663.8791879294
83682.997565316
83682.749920154
83716.8119131321
83717.2894056241
83719.3548105826
83719.3134927374
83745.4437117827
83746.6157931326
83745.8525861408
83744.9975881288
83770.1390958
83771.5311592802
83764.703856093
83763.5656692092
83779.0643081824
83780.3197980582
83788.4998704818
83788.7332268456
83782.9719131528
83782.7704442813
83776.3674846136
83776.6515594271
83770.2365119936
83769.926024441
83765.7738178773
83765.9774787001
83759.8451660676
83759.7026916964
83753.3704849959
83753.6008150636
83747.6424424432
83747.4395598171
83756.4642811799
83756.6882842137
83751.7879863467
83751.6140628461
83745.526583103
83745.7410301032
83740.9426692094
83740.7338513856
83735.239691398
83735.5517722134
83731.5259544641
83731.2752278334
83726.7896172833
83727.0885624607
83723.5068484833
83723.4058508288
83720.8587952883
83720.6659187724
83724.2485951713
83724.4261899016
83720.452097661
83720.3723759617
83714.1159367447
83714.2648374905
83711.5253764421
83712.2000798695
83710.625891313
83709.6513073062
83709.0680123417
83709.4432883797
83707.7812779798
83710.7222074272
83716.5239103848
83714.4404776084
83708.2382510574
83708.1465881172
83691.3724186696
83698.6360246536
83711.2725350942
83711.7527752526
83708.0629359082
83706.3681665758
83694.5074276506
83697.6679299276
83689.396891963
83685.5615544464
83671.6560593257
83677.7367391838
83662.3281890351
83659.2479008429
83642.6110286883
83640.9520768228
83625.2176510881
83623.974200563
83628.4253476077
83627.1823457161
83629.9906089459
83630.0860779936
83612.4526491136
83612.4352098117
83615.0357732157
83615.140558156
83615.5096045795
83615.5496135287
83617.2569375006
83616.9470101121
83611.4182804221
83613.6941206012
83625.7774720168
83618.9811572198
83613.6437317927
83623.5695628392
83607.8980383489
83605.0173228167
83614.1125293005
83615.6339135919
83610.9635143527
83604.8938422004
83600.3541690244
83611.4872167463
83580.8795928475
83585.9507777608
83594.7835491349
83598.0056181954
83592.5214340359
83586.8340165583
83581.0510913318
83576.0404250512
83570.5481953667
83570.946227619
83570.2620573095
83573.9393020513
83576.2367988031
83567.1995993737
83578.9532052193
83576.9908106097
83582.1042065921
83587.6270319129
83586.6573671014
83586.8185883537
83591.8266744882
83588.6275236156
83604.1591868534
83601.495534293
83608.0927165395
83621.8817726733
83623.4646960643
83609.1678788492
83609.2400506773
83610.2713884378
83613.8409491333
83615.1498026294
83603.451690449
83604.50255045
83604.3773103004
83601.66459251
83613.7325984576
83615.3156167482
83614.7861751853
83613.5880809653
83640.4117237342
83640.4219662947
83659.0166753272
83659.516754083
83676.016116212
83675.0768907403
83694.7100387981
83695.5077997698
83707.0579659745
83706.2756509661
83730.5556788094
83732.5082773105
83743.176431553
83741.7104267284
83767.3310071917
83769.1501317664
83773.4040998866
83771.6859677227
83792.7012208766
83794.170719796
83802.9602393743
83803.1059764289
83800.8384787217
83800.6054556526
83796.1847638638
83796.5059144965
83791.6781249557
83791.2901444063
83803.5505196339
83803.5155313957
83799.8068174221
83799.887250857
83793.2133674816
83793.1920425199
83787.7269133009
83787.6607824378
83780.636548213
83780.8074021921
83775.8145711508
83775.7156177239
83768.7179104111
83768.8438851818
83763.2805506959
83763.0904838899
83771.3706791482
83771.4970883396
83764.7919399195
83764.5167152364
83759.2289081687
83759.4278017638
83753.2221523141
83752.892019267
83747.6915997199
83747.9079581136
83742.2686210473
83741.9234823437
83737.3123127485
83737.6351417037
83732.9068877625
83732.5266794861
83728.4130527554
83728.4120674743
83733.4290161961
83733.3845824434
83730.1934298405
83730.0549305021
83734.2196485826
83734.3119875716
83730.5931631466
83730.6730955287
83724.921651649
83724.4140771032
83720.0432952294
83721.373671504
83720.3779997247
83719.5671886792
83719.4930774272
83719.069694832
83726.013062423
83724.9015584997
83726.1684930779
83727.6502425173
83730.07480193
83728.9115993069
83736.8167346521
83737.8409836134
83734.3738220027
83732.3122628727
83730.7824127918
83732.704999925
83727.8134128028
83727.4799569894
83721.0777113102
83720.7682380672
83715.9582261816
83716.1681295582
83724.9172106694
83723.4386319835
83720.662390936
83725.4476314496
83718.5445714787
83714.2368487819
83703.3975163592
83706.8645499425
83693.2961873196
83689.0556438284
83675.4623831016
83682.1038367068
83666.7316380594
83660.5652165135
83647.4927725999
83657.3385835004
83641.8845962655
83643.2008673667
83608.1354654437
83609.0031705697
83577.2398261435
83576.0466378514
83595.6968152066
83596.5733397719
83606.3708210329
83606.5002146557
83591.6723229057
83591.467941217
83597.7733579921
83599.5629615462
83604.6185665968
83604.1099407407
83606.1032745297
83606.6880077443
83596.134865225
83591.7567873483
83609.3980632781
83605.4593554391
83597.9754707841
83608.3639661973
83571.2387394477
83585.4589320671
83571.0958455284
83565.1456299637
83551.4753448349
83548.3944576994
83528.891616328
83535.2745522527
83485.7985430799
83489.0694873394
83454.6162249212
83453.062964333
83429.1968161323
83428.5119721835
83397.6716567989
83403.9353566215
83479.0620290377
83479.8802098484
83532.2588754483
83529.566716767
83526.2949793667
83524.8773074919
83554.8361904372
83554.3766344216
83545.9202712977
83551.2607211158
83562.6401522811
83550.6666086938
83571.2559672591
83571.9970498598
83563.6375285908
83545.0429999705
83562.9903986231
83563.2285084356
83566.4200976048
83570.390729276
83580.8582844315
83575.6221821634
83582.6237244717
83587.9177300435
83590.2358057941
83587.5843028064
83593.4869460248
83601.4320770096
83605.5133890855
83596.8624429376
83587.8910105977
83585.2689810268
83592.4127071129
83595.7566654888
83598.9414452853
83596.1174289966
83587.4480681369
83589.8996132714
83585.3229064857
83580.9352480416
83574.5977595376
83579.8288425642
83571.8122451901
83569.5620874599
83575.9275396771
83577.544789744
83579.5195145829
83578.0902153179
83582.4291337551
83583.2158266732
83593.1162017964
83591.7349618217
83597.6588451272
83598.6761368305
83619.9786798762
83619.8418505424
83637.4862163267
83637.352348903
83638.7956366321
83639.4790946212
83665.5772394818
83664.7131034029
83690.6788815848
83692.6969391818
83714.8839721538
83712.854976264
83732.008611527
83733.9587621108
83757.013525837
83755.1904783119
83777.0226995932
83778.2225886728
83783.4021881428
83783.3264786415
83793.1605767846
83793.1206961762
83797.7889111816
83798.0190422906
83800.5578476909
83800.2952876446
83812.4467982745
83811.9497647201
83813.9995745468
83814.4305081362
83811.8706229865
83811.6264632809
83808.783883904
83808.9982497687
83818.5003557897
83817.9098527836
83812.7063537038
83813.0483794715
83809.0448068948
83808.773699037
83802.350387721
83802.4985764704
83796.7437359617
83796.6883730143
83789.6983371183
83789.6337227123
83784.2962411124
83784.3858784296
83777.4600342949
83777.283060759
83784.9409988631
83784.9381005386
83778.7641275924
83778.7787218961
83772.0885588138
83772.1521912313
83766.4081571483
83766.3918379546
83760.0730694495
83760.201816561
83754.3801261528
83754.3259430776
83748.4224762877
83748.5737231198
83743.2956117182
83743.1135880169
83737.8276794222
83738.2140915963
83743.7874785905
83743.5087692131
83738.71148132
83738.6581874911
83744.1118426177
83744.0849414037
83740.6488032318
83740.4773073367
83744.8127789449
83744.9039173738
83741.1316351364
83741.1969284634
83735.1763740349
83734.6387893585
83743.3078086462
83743.8842129305
83751.4612290111
83750.9656051662
83743.8674435472
83744.8425116665
83740.7171405891
83738.4065528635
83736.7899685812
83739.0574190132
83733.9288064437
83732.9802890899
83728.290483738
83728.0663696286
83722.3827255131
83723.0824968013
83712.1852237278
83712.3349762445
83706.476158169
83711.0131243294
83706.338351373
83699.3048211477
83700.9556863463
83700.1222899724
83688.4549553656
83687.4518543775
83672.8566332289
83682.0253109667
83659.8780093884
83660.7570156701
83661.7926589652
83660.7623331967
83643.790470212
83653.8453602402
83628.6384700363
83625.5498146725
83585.4658518
83586.2551927172
83546.7339159991
83548.6341495084
83522.6954068766
83519.8748833109
83552.1960447832
83553.4324059425
83576.3696745934
83576.0048059592
83551.9482154703
83552.7707553252
83574.6312194957
83573.0217871086
83583.4088792365
83578.044091614
83593.8568774933
83592.7798742458
83583.4037770324
83585.8627219463
83567.2965442439
83572.0231794666
83562.3589996485
83570.4992073483
83547.1855051191
83543.1306306825
83510.5087937292
83507.6032348648
83484.6772622629
83482.1673920345
83461.2867485108
83465.5670557941
83410.1984192322
83412.2676073235
83369.1060728324
83370.3349189433
83345.7019175989
83336.1913613512
83305.8032144716
83322.5934564201
83316.4063776237
83297.5315699266
83357.8846857084
83354.6572581011
83456.3580887116
83457.7621519089
83461.8855879378
83456.1998454064
83448.2612403965
83452.6295777463
83495.3198399328
83497.5148157546
83538.3848910441
83527.9928839661
83535.807365467
83533.8662827456
83550.7141521766
83542.3498505201
83550.8328427293
83550.517530939
83549.2341119815
83544.50843625
83533.7434778629
83540.2640748792
83538.0056156752
83539.8289860765
83551.5855611901
83551.1733824861
83566.1813642788
83563.3833933442
83570.1085336256
83571.5049317095
83583.4256407705
83579.8032758701
83576.3160754003
83562.5247993697
83550.3517542946
83564.2296345135
83565.7044899763
83565.8672861527
83555.6463617084
83554.5096918592
83557.6491139298
83557.6429641738
83560.4614086744
83560.9151515336
83563.7135775863
83562.6671981986
83574.0123500873
83574.733519115
83590.0720476384
83589.8041844086
83613.3976014825
83613.3286844898
83605.3126992822
83605.4340929847
83637.414309959
83637.0084148036
83668.9698482061
83670.0024243854
83705.6187011471
83704.0774014633
83718.840329706
83718.6702811146
83715.0490084275
83714.8699441766
83736.4522691561
83736.9425957637
83753.131278388
83752.9297618161
83769.8050951859
83770.0316342538
83775.4186252012
83773.8304289431
83788.2882043727
83789.4576190509
83802.165884672
83801.0649620579
83808.0351053419
83808.6707797434
83814.9704531571
83813.1242683
83819.0678156115
83820.4889995579
83823.335764611
83822.2737332093
83820.5954184324
83821.3619422196
83825.9565239794
83824.871770925
83822.8816036335
83823.7413162585
83819.0928292397
83818.5129867234
83814.8549105928
83815.3287312803
83809.2551723705
83808.9638468367
83803.5491657915
83803.7913243614
83797.1718685609
83797.0442668098
83791.5878914789
83791.6778011312
83797.8050898442
83797.6321118864
83791.4084065714
83791.4838470951
83785.5294687772
83785.4666234728
83779.0980015659
83779.1065460642
83773.1306131644
83773.1472544674
83766.8694095834
83766.8077818932
83760.7970686496
83760.8638130318
83754.916080669
83754.7830941645
83749.1339050376
83749.255195529
83755.0842868608
83754.9382684322
83749.0137446993
83749.3462658405
83754.8844856518
83754.6436366333
83749.5648073133
83749.4812102349
83754.8003157199
83754.7898213723
83751.1290714387
83750.8797083946
83754.8646725061
83755.0069305368
83750.7782545108
83750.6611392946
83759.0381089251
83759.3802625741
83766.5364842896
83765.9907923108
83757.7656988037
83757.3531912381
83749.5624627641
83750.5580323232
83745.9136711203
83743.508638856
83741.6552278697
83744.0724935053
83738.6748204388
83737.2411548011
83731.5773359774
83732.0527049309
83726.112095091
83726.1511071939
83718.3636384508
83717.1053641883
83708.21237774
83710.0637026136
83697.7933555214
83698.2977411027
83685.8591146088
83683.6511638094
83687.9420802108
83686.2036438129
83674.2292109744
83674.7186131295
83673.0576758405
83673.9003106107
83671.2207246047
83670.3963569718
83672.6662660154
83670.0935373572
83654.1755639806
83659.7887733922
83637.2195163106
83642.0882754075
83604.686473295
83602.3816997113
83554.6126213854
83552.7442176185
83506.2451326162
83510.2322976439
83482.7729343342
83477.7083296783
83442.1277644442
83446.8663193199
83489.6870743505
83487.4846297324
83523.4493234241
83524.4934676541
83497.7339120267
83496.6120664594
83526.2666469282
83526.8792018173
83557.317481245
83554.1345077336
83571.4900702246
83576.7992322337
83565.2519622791
83551.1592677099
83521.8386473358
83477.8249825361
83433.1008573737
83382.1640551109
83339.4224795273
83316.6084037644
83314.6750743997
83298.655798241
83296.3839177132
83352.43317083
83350.2923920797
83411.9880113403
83409.6433488405
83399.7419276622
83398.6727938308
83392.0003072586
83392.9348023965
83385.9873653686
83384.9298406709
83445.2191923982
83447.0919195261
83495.2054172216
83495.697286119
83534.5030909552
83529.0926322521
83528.4585259154
83529.4386136122
83498.5819412923
83496.0015682196
83449.5976128912
83448.6680859149
83446.0529011761
83447.7954688166
83492.4774329729
83493.7045413664
83532.6151181594
83525.4042132848
83525.5820186616
83526.9575209179
83502.1043927183
83508.2631397158
83528.3155131549
83529.1375473235
83497.5586031225
83458.421275191
83459.8250760953
83421.5631429556
83427.8886079199
83362.6189079177
83365.4215514781
83408.3140789755
83346.0346692384
83340.083358676
83340.5552834632
83326.062012036
83324.3339902726
83308.6079858705
83311.0177515965
83301.1945982882
83300.0934559616
83309.2888182893
83309.701944551
83307.3656687467
83304.4011030864
83303.4611093032
83309.3071873334
83304.6336283399
83301.5207501073
83300.9958852775
83306.8101484505
83281.4909718895
83290.3133039298
83290.6947132666
83278.3075094726
83288.3999251214
83293.0899816725
83298.8761212596
83297.9425808291
83306.1881368782
83306.3092878058
83318.7616665923
83318.8552400233
83322.8208438319
83327.028055944
83328.359721828
83324.4913887125
83327.2047556737
83329.0787070112
83359.0367259603
83359.7408163673
83368.6404406435
83368.2302383725
83379.6196756444
83379.7992700564
83394.7014033645
83394.1659815215
83410.1789812001
83410.9456840483
83427.7053894814
83426.6786517352
83442.2090406768
83443.4236285793
83457.4812586537
83456.1826075729
83467.3902069649
83468.5601145752
83478.1092533356
83477.4134257607
83486.3272794139
83486.1267154552
83499.2283431551
83500.2361560861
83521.430243927
83519.4541458558
83558.714448542
83560.8791571884
83619.911243203
83619.0672518558
83688.7769329908
83688.1522568426
83746.2051606154
83747.8676240238
83780.6487872815
83778.844586775
83794.7092081526
83796.246831815
83803.551893479
83802.0690717378
83807.1139079132
83808.6357097695
83811.0831348186
83809.7219203136
83811.9470167074
83813.1191513532
83812.75175737
83811.8019297259
83810.8752435067
83811.6820883044
83808.7590046906
83808.2496544143
83805.2514050296
83805.6271798969
83801.0924172391
83800.7943322124
83796.0429891006
83796.249596364
83790.6899867581
83790.6018177586
83784.9661317383
83785.0105386068
83778.9302461691
83778.910221332
83772.8379841346
83772.7976958425
83766.6415949212
83766.7294207796
83760.7515774651
83760.6691657625
83766.135473115
83766.2033899467
83760.2321281569
83759.9539147706
83765.2748298638
83765.4589275034
83759.8746158213
83759.9918565566
83764.8644462203
83764.8256685185
83760.5668359841
83760.8748399757
83764.235377417
83764.0364314551
83769.1446539916
83769.4837329359
83772.0640345199
83771.8207505333
83775.998924782
83776.335678386
83777.8027319855
83777.5154705725
83770.9008430905
83771.7206689818
83762.0131828387
83762.2729434494
83754.7197681417
83753.8399970897
83747.4341656558
83749.3612455379
83746.8888504933
83745.3358959987
83741.1294384153
83742.2401935441
83735.2256171916
83734.8984901132
83728.6927925314
83729.0411316465
83719.6356011576
83720.033355452
83708.8025824233
83708.5924859716
83698.5515865108
83697.4898081467
83684.3792079306
83685.4640334559
83684.3772197136
83684.3294049919
83681.0344674542
83680.0859420308
83662.7828935898
83664.7757234222
83658.8568252623
83654.9077725702
83639.3869618631
83643.1521565911
83641.6860841287
83642.1123668556
83621.4513496197
83619.3514696949
83589.5404693208
83594.4679897016
83552.3695812545
83547.041442328
83509.3263889296
83501.3070376554
83449.5430359516
83456.7028867761
83432.5268888126
83424.4114362838
83387.937118848
83396.1814924221
83370.7625680718
83364.9179324604
83415.1120476662
83418.8861086332
83460.535612906
83458.4705001167
83441.4203079592
83440.1455875752
83406.4406757313
83400.9848377422
83376.4056570633
83382.7256348849
83319.410864685
83315.943957585