/*--------------------------------*- C++ -*----------------------------------*\
| =========                 |                                                 |
| \\      /  F ield         | OpenFOAM: The Open Source CFD Toolbox           |
|  \\    /   O peration     | Version:  2312                                  |
|   \\  /    A nd           | Website:  www.openfoam.com                      |
|    \\/     M anipulation  |                                                 |
\*---------------------------------------------------------------------------*/
FoamFile
{
    version     2.0;
    format      ascii;
    arch        "LSB;label=32;scalar=64";
    class       volScalarField;
    location    "100";
    object      p;
}
// * * * * * * * * * * * * * * * * * * * * * * * * * * * * * * * * * * * * * //

dimensions      [0 2 -2 0 0 0 0];

internalField   nonuniform List<scalar> 
207032
(
83526.2802958052
83539.9312242642
83561.5451409384
83538.9144802457
83525.4518674776
83515.5362587354
83503.5864491538
83494.7694123916
83498.7205382784
83510.1810278096
83510.2579344428
83506.5587969772
83506.8229532406
83515.1058855792
83514.6590880892
83522.9208922999
83524.4448043822
83523.4259424323
83523.7422445802
83534.033390397
83542.3686633022
83546.8461434172
83533.9956319515
83525.5057788972
83525.7347139098
83532.952368731
83532.2836003602
83534.4437632568
83540.0440664023
83539.4081149045
83534.8546487263
83535.7365915665
83537.2402762825
83535.9934562461
83534.5766342756
83532.7705792959
83539.2370301608
83548.3128450374
83535.7952706459
83535.7736908658
83548.8673294545
83533.5769696273
83531.0739885157
83535.6683930922
83550.6320529206
83492.6331529594
83505.1716138478
83491.3454649941
83468.4327632934
83473.6767477189
83488.6775940634
83486.8228926366
83462.0437051685
83558.1048534761
83556.9472377239
83520.244860763
83512.4871775587
83505.0963428134
83505.1061219125
83505.6398205579
83505.0693054448
83504.1229584879
83505.7043201737
83499.7946567929
83499.5663398736
83494.1478667931
83492.6783680948
83474.7606906193
83491.337671612
83510.2583384399
83504.4028774894
83525.5983973321
83565.878449296
83550.0075419023
83529.2425984798
83512.5642387082
83516.445519592
83491.3343981313
83481.1815833303
83487.1076129295
83493.7992113462
83498.3664599907
83497.2172101942
83497.99054036
83499.5617859072
83499.6491196252
83499.2603572643
83500.6019983726
83500.439525076
83502.3561533091
83502.5961068084
83500.9100830059
83501.4076941295
83504.4953991642
83504.6841309172
83511.4715787948
83510.441697052
83518.8820053926
83518.4708704836
83527.1115347644
83528.1429715134
83536.1125313492
83535.3208798922
83543.2522729306
83543.724344816
83538.2800920933
83537.6891504136
83543.9688452683
83544.4635130675
83539.4890138643
83538.6744044578
83536.4064811332
83539.3809185172
83538.1918249302
83536.0684991576
83526.1603184674
83535.5450384815
83535.9424804406
83539.9095394861
83555.5879080328
83539.1140338394
83540.065858394
83549.9165836234
83547.1854291437
83542.3107288922
83542.0835280412
83544.2086947912
83541.4790169858
83541.1660494637
83540.1626950172
83539.5464774064
83538.8093977088
83538.5470559349
83535.0887798408
83533.8030920238
83532.4783729461
83531.3576052286
83529.9083140041
83531.2372831221
83531.8367874925
83529.6511512038
83527.1128282088
83534.2074710952
83517.9302080861
83522.1206412108
83520.9843719187
83510.6834389245
83551.3668470321
83515.6060479517
83508.6191387803
83504.6274298426
83501.6250970445
83499.5586003681
83493.2259791435
83491.2181566731
83479.9734943728
83489.993501454
83502.0832408584
83509.5332908411
83527.0319576218
83506.1831663454
83497.3524833407
83512.8713645175
83501.4333274981
83498.0274635177
83499.4234186118
83500.5563567193
83503.7236774603
83501.9328843012
83495.4094756893
83493.2312551168
83495.4189252941
83494.9521984237
83495.3998694917
83493.8421763278
83494.8429455963
83495.3711856526
83497.6327370704
83505.5780493153
83492.8206687601
83491.2739328005
83500.8255577897
83495.3019014238
83493.1038449095
83493.6393442748
83494.273142759
83495.7547395711
83495.4226892741
83497.7594309631
83497.9665067147
83500.1022191337
83500.191870913
83500.7624568071
83500.6845204962
83501.105143163
83501.023339359
83498.6684796128
83498.8477946454
83498.98307825
83498.8105642494
83498.9674423194
83499.1417512245
83499.2751074679
83499.1531982509
83499.1906109253
83499.5501532139
83500.7486122915
83500.5657539618
83505.7438210214
83505.6013250238
83513.5948230813
83514.3298722048
83520.6504898224
83520.8900888812
83519.6758507807
83519.3605374845
83527.5636392585
83528.1356146244
83537.7596758001
83537.1647546806
83544.2281480279
83544.5121343484
83552.2906946278
83551.7519289715
83556.764557338
83557.3394035258
83552.4854355255
83551.7687192418
83555.1639891006
83556.3858747493
83552.3101653553
83551.2736367607
83545.9766159028
83545.8345252602
83544.0552477223
83544.6141098962
83544.2829596385
83543.8100555557
83546.6662023316
83546.6127770737
83541.5916663621
83538.200769059
83541.6470509789
83542.6791339399
83545.4720407082
83544.0919823407
83541.2089732327
83544.3768917544
83541.7932161989
83541.6284459285
83533.7778341611
83540.0766004999
83544.9499735959
83541.7855527484
83533.786522833
83521.3023808136
83507.6060828349
83492.3242998694
83484.6537150439
83476.4157434867
83479.7881130658
83474.9849416251
83482.4371904924
83494.7584057338
83509.1461754343
83505.0898634097
83495.8737928458
83499.4858204287
83496.3535828668
83508.2622508176
83505.7509006627
83500.0043644639
83487.0990624207
83491.4271224376
83496.8278409698
83495.3371716927
83493.5458676631
83493.9511810366
83494.7020659603
83494.4903817348
83494.915015886
83493.8957134605
83494.114739051
83492.893472392
83493.3606834258
83486.5306474645
83494.1653411691
83491.9792515382
83490.2149798129
83492.2883856275
83492.7556456973
83491.6444422874
83491.6286390209
83493.6102453689
83493.6442067612
83495.7420798081
83495.8057408897
83497.8503042226
83497.6385072069
83495.6242672657
83495.7781394147
83496.9152716827
83497.1287509702
83496.9606439498
83496.7689070652
83495.6128723286
83495.6565173358
83495.388697131
83495.2733996009
83493.8579871236
83494.1504260218
83497.4061137762
83497.1922960214
83498.8240206965
83499.0528090101
83503.738113719
83503.8951968178
83513.5242499174
83512.5991028543
83520.4588940753
83520.2281031472
83521.0882661084
83521.3264086661
83531.8321699843
83531.4842314269
83529.9943880332
83530.3467649927
83541.8235707215
83541.286749249
83551.1849804113
83551.827880934
83548.6481390833
83548.0134359751
83556.0032333345
83556.3454580939
83563.7790251452
83563.5345054737
83571.4435062401
83571.6206832657
83565.0913477706
83564.5021544989
83569.9106992693
83570.3093725935
83563.1008562821
83562.4345473739
83567.2633591383
83567.1721864472
83559.9580579105
83560.0580286383
83553.6666757274
83554.1181256443
83549.1339474324
83548.5794538746
83551.1133832834
83551.4652360382
83548.6367279323
83548.3041714743
83549.6035601303
83549.6489988576
83547.1858324914
83546.6646139309
83544.5014615818
83546.5151921715
83548.3474126331
83557.1436887889
83547.6747155161
83546.325594343
83547.6700124864
83546.5442779205
83546.7807075585
83547.8890878965
83543.3250785222
83541.1331093565
83532.3034479123
83540.687279049
83545.701844885
83546.0211712129
83545.1006521907
83545.4107721129
83548.5669861501
83544.5576232108
83540.5348585783
83535.7978077331
83538.2370485554
83539.4311889041
83536.4177118169
83534.3974523325
83536.5618887184
83540.0028365753
83542.9722448246
83543.4953138517
83533.3062825298
83543.0022556217
83537.1324350581
83533.6789559398
83534.2188970605
83532.846910039
83522.6804178514
83523.2297502509
83524.9485452991
83524.0717030237
83525.7784584613
83529.4839170189
83522.4749061555
83519.5119546587
83523.7299300663
83529.5948606253
83516.9149742924
83519.7484768164
83518.610751436
83524.2837744047
83526.5068861082
83517.7498293284
83517.6183733032
83532.3900522855
83517.9922648227
83512.1424126541
83507.2661882511
83516.1906111932
83505.8534033863
83499.7836802389
83488.4191869588
83485.851121833
83483.3329177174
83482.9411244945
83470.5778666975
83466.5290312602
83445.9101161358
83459.3398854296
83441.7181792258
83435.6630536344
83471.2736820719
83471.4180124562
83483.6528565822
83478.3107042338
83495.7227861856
83492.4052465491
83493.8189906125
83494.8754834488
83491.4037288099
83490.9557323062
83493.4104872504
83494.4170655685
83491.5449288135
83491.3768760675
83491.2339121
83490.9360953017
83486.888778257
83490.7257769439
83489.9633766968
83489.4048352784
83487.4819549499
83487.8130886721
83487.4207456537
83484.1073680245
83489.6717712329
83489.8206395037
83488.6605407877
83489.2851035818
83479.6824225013
83484.7827450667
83485.6603576016
83484.8615964442
83487.7526625048
83487.9533308384
83489.6838949649
83489.6264762888
83491.4386801315
83491.4904965374
83493.6053804294
83493.6337093199
83491.1249675247
83491.4734836954
83494.2893248242
83494.0827583047
83495.4232332945
83495.79780464
83496.815660846
83496.1041298289
83495.4036123106
83496.7910247368
83491.3428785702
83491.5869192183
83490.6978170599
83489.016228505
83493.9131374434
83494.4891970437
83498.333629456
83498.5897559501
83508.585973196
83508.0403222427
83514.0738173196
83513.7285242681
83518.0265151348
83518.262367449
83528.5572775453
83528.0446397631
83530.7157361418
83531.1451343373
83545.3685542782
83544.9514371554
83544.8661172088
83545.4332530753
83559.1813545012
83558.6700562065
83555.909345543
83556.5121686045
83566.8079794716
83566.4564302099
83561.2748727273
83561.5808892178
83570.8889656053
83570.6906168961
83579.9836127557
83580.0704090257
83589.650519719
83589.7308091363
83579.1279394193
83579.1427363112
83586.7825365634
83587.020207287
83576.5659632164
83576.2597852538
83582.0937818457
83582.4286140159
83571.8131263538
83571.3189493044
83563.4942407896
83563.8161488737
83556.5996620771
83556.549338295
83558.599553032
83558.7046593375
83552.0111256827
83552.3365608677
83551.8462639421
83552.0661443468
83548.6822536503
83548.8195215432
83549.9603409492
83549.2911190165
83547.5250574503
83548.992741708
83548.2480788715
83548.2473622558
83547.7005572823
83547.0039513684
83546.0637035266
83546.4752205075
83544.0447506901
83544.567280309
83549.4769050012
83546.2201787135
83543.5706970672
83546.5712016979
83543.7381584863
83540.5803885395
83534.4504512476
83536.8089632977
83526.3825532094
83532.7459482016
83526.7937000621
83523.2410630644
83518.3917895921
83518.005280126
83505.8112703809
83506.4645976605
83512.9368247079
83512.0885192824
83515.3173443509
83516.0003236352
83507.8218630638
83506.9397285196
83512.0081477091
83514.5499233168
83521.1719868374
83517.1810790548
83507.9490069706
83508.0764911081
83505.8181293961
83503.0697560141
83495.876274837
83495.9177082664
83490.6868749413
83490.6721937954
83481.4116791465
83480.4270208725
83470.3981312328
83470.2029137196
83458.3727948714
83460.8113929443
83453.787209255
83450.5990675219
83432.904610928
83429.1716690077
83432.9267606776
83424.3562628187
83410.9814519192
83412.0390119999
83388.1437300461
83388.8501894655
83431.6933415811
83431.3778720737
83461.377416663
83462.4951316805
83476.9158595731
83474.5008896805
83485.3045507283
83485.8565028189
83482.6448977395
83481.3400616762
83487.9356060219
83488.3108840002
83486.1016934146
83485.6211163862
83490.4228607849
83489.7708783175
83488.5405600165
83489.7063669352
83486.1238061925
83486.8409160332
83485.7421696919
83482.9609559006
83482.1314353847
83485.3778559741
83485.3375196985
83483.6348825087
83483.4830018578
83492.9155906989
83489.1217328034
83487.0803842786
83490.0525083199
83491.0273944765
83493.2154046548
83491.4871841492
83489.6313318447
83490.4304117192
83504.8873308701
83495.3116477328
83506.5642061325
83535.6733160935
83541.007545122
83500.2226598958
83476.1844575308
83449.9577567635
83463.3695446197
83480.7727203029
83484.5618431646
83481.1210125857
83477.847883057
83471.1178531394
83482.0583129782
83485.3505601611
83487.2450608945
83483.4068598091
83466.2926486324
83479.282771741
83479.0900587789
83463.6209156038
83488.2410663312
83489.1439623224
83490.6754253557
83489.4937989797
83488.2020905837
83490.0950354659
83491.052882488
83488.4591814085
83492.4560673917
83493.3862178426
83492.9334813176
83492.6891540031
83496.4658273761
83496.8016599824
83503.3330122059
83502.4378224017
83509.3186744631
83509.8312031717
83518.2647412417
83517.2881385529
83522.1963795696
83522.9536919891
83534.2830094089
83533.5279581613
83541.8131086655
83542.1891959707
83562.8945912191
83563.0066664364
83567.1208060415
83567.0952228959
83561.2889806756
83560.9697455874
83573.9176071301
83574.47812867
83571.0132261901
83570.7091245028
83583.3699865839
83583.4746644649
83577.5139845881
83577.3046459214
83588.7103263941
83588.7179608092
83600.5389815354
83600.9077145285
83613.4697662818
83612.6852238481
83599.3427450113
83599.7370054593
83608.9406411914
83608.6678184038
83593.9440539047
83594.1360498893
83594.7311458774
83594.2365840229
83596.0336077081
83596.119298832
83589.4635559864
83589.5000196169
83583.3694200321
83583.4345669922
83577.7675899567
83577.7585271345
83572.9792570877
83573.0642687995
83569.174923679
83569.0865356306
83565.4216847252
83565.4907850235
83562.479777107
83562.198844753
83562.5991775237
83563.2587667087
83569.5053621006
83568.971356077
83571.8021581552
83572.390205698
83578.1547146853
83577.6503957711
83582.122062858
83582.6675418565
83590.0728353458
83589.7938992471
83589.7929537351
83586.8486718182
83593.5216502136
83593.8563955355
83592.1662750222
83591.2757712234
83590.7409864631
83589.5176678143
83585.0672058848
83572.9690218442
83559.5656504138
83535.5394848661
83525.4673111423
83497.6186286801
83466.7623507896
83452.7542390835
83431.3383849506
83424.9051027349
83416.742236637
83416.878199501
83451.2988764005
83453.6444561617
83472.6989987641
83470.1159109899
83465.8829738507
83468.2760581207
83479.5965738102
83478.2093176799
83477.3720100289
83477.9197703672
83484.2541703789
83484.1536126427
83483.6823335163
83483.2773514926
83483.7061372258
83478.7957512152
83477.8835749344
83484.2615516776
83486.5895099545
83487.5646235487
83454.1016988559
83478.8611162151
83491.2142801536
83476.3239664562
83464.9277678732
83494.1287758576
83501.085945425
83486.1221832462
83523.3415007733
83509.4937789363
83507.1692011125
83508.8022908704
83507.3892870834
83508.0002710879
83478.9816965105
83496.3561607369
83497.1447499486
83485.9169585876
83531.064006329
83525.2856038556
83517.2242272173
83516.7032454514
83510.8489207416
83511.5579730342
83515.4688340146
83514.5985229761
83525.520540779
83526.1119173163
83535.685137693
83535.4643500422
83541.3381308452
83541.5441132866
83550.6701815716
83550.2737261817
83559.6430673757
83559.7059056193
83572.6793729006
83572.9044993978
83583.7018175442
83583.6012641764
83590.3421995696
83590.2861682087
83592.2472010631
83592.5055104297
83592.7935582938
83592.2946368844
83588.0853755305
83588.3756715968
83604.7430003252
83604.8647860077
83597.5559202172
83597.3852996089
83612.1145681977
83612.7087290978
83628.2863073823
83627.17899539
83641.945367471
83642.4826486019
83624.7720445708
83624.3941305677
83625.3172800147
83625.6904435026
83628.3868455744
83628.3848805672
83618.9159595888
83618.8648306409
83611.0002666836
83610.9864171683
83602.5674224413
83602.5633740662
83604.6017618506
83604.6140104918
83598.2197032623
83598.2617137374
83590.5424426802
83590.6893104244
83584.9216841061
83584.9083960411
83578.5842613431
83578.7831968575
83574.1965916394
83574.125299533
83569.656604289
83569.8072648352
83566.3936019756
83566.4310785396
83564.2789159238
83563.795061159
83562.70772941
83563.1512496327
83557.6606862641
83557.4956542359
83557.6842378328
83557.6370143845
83552.9557731616
83553.2736540091
83553.915685744
83553.6125642893
83549.4195876998
83550.2001833418
83549.0908267787
83548.271017543
83544.8480378439
83543.5958591329
83545.1917050211
83546.2221487902
83545.0345699998
83544.0515092263
83542.5595231867
83543.7892148137
83541.0463911021
83540.2265669016
83541.1970071563
83541.8864032209
83538.0040451492
83537.2293205432
83533.2954598523
83534.0362451499
83536.603659517
83536.9936287513
83528.3007453656
83530.067154796
83521.1449871274
83512.4675992649
83528.7686090802
83527.4464057733
83532.0131340762
83525.4742955869
83509.9924023156
83494.7115071735
83494.0210947478
83494.1985337894
83503.1266320682
83501.9343346141
83490.0425500991
83490.1983139715
83498.0414863036
83497.5128300221
83502.4532648478
83502.8858487503
83502.452843166
83499.0564343504
83492.1592402858
83488.5455469751
83460.0906565872
83442.1976402408
83396.7989577011
83394.6128157149
83406.3000716943
83360.6582965208
83357.9871591657
83335.6971239128
83331.8261009691
83327.8066753316
83332.5597702348
83364.0323127395
83359.034120178
83341.3270478817
83345.6216739872
83403.2252189162
83404.4327048985
83443.0732001173
83444.4426743768
83435.4820430607
83433.540709149
83469.1851100212
83467.5198151806
83472.9666516185
83472.3852904153
83489.4815522554
83477.481361936
83478.3906366645
83479.562901
83490.0692631283
83482.2879091361
83485.1416608455
83486.1758166722
83469.3309318732
83483.3531113576
83489.7101434694
83484.2485746337
83528.7650080679
83498.8414947304
83502.6809473284
83495.4416649782
83534.767560522
83519.5270965524
83525.9700014262
83552.5691290094
83546.7189633971
83522.2951791183
83514.8120338551
83526.9313663035
83518.3988920479
83518.1876228879
83514.3418879827
83513.8990273258
83507.9979656315
83508.7962173897
83508.5794153914
83507.2219625339
83509.6810747901
83506.3091869717
83502.1828503929
83503.8546046025
83505.4906792959
83505.7012424712
83504.8146467669
83504.4684416311
83505.4209383642
83506.2878965689
83508.8067673722
83507.7151563828
83509.814839099
83510.606776413
83520.6189836798
83520.0441254815
83527.7134567442
83528.2106641212
83530.9641632908
83530.7576450548
83540.5953489145
83540.7439784585
83550.7922465512
83550.7923730471
83560.9306842471
83560.6251501391
83571.3036585462
83571.9245378559
83587.540186218
83586.9440414276
83601.657510971
83601.9892281862
83610.0266531642
83609.9185894339
83612.9543094307
83612.9316469201
83611.6087629145
83611.6929241934
83630.8097045573
83632.0768805371
83622.8887371794
83621.9077352
83639.8632380123
83641.6335504382
83658.7801368015
83657.7443941388
83662.1137254665
83662.6753820772
83667.2758337016
83667.2779612662
83656.3343315482
83656.2739319916
83647.2900656924
83647.2626281199
83636.5742211522
83636.4426706386
83639.0589319191
83638.8955049872
83631.0660072613
83631.3277548681
83620.8241962077
83620.7601828805
83613.4596207202
83613.5676179315
83613.8834023869
83613.7372242082
83605.4293554122
83605.3880205411
83598.8995824887
83598.9051895809
83591.7192218773
83591.608084389
83585.812976358
83585.8398361895
83579.8244601552
83579.6628762222
83574.8299977446
83574.9423638731
83570.3574532752
83570.1707820265
83566.3955157825
83566.2153099985
83566.4664017366
83566.5334167059
83563.784852757
83563.427337247
83562.7300218262
83562.8748654911
83563.5866998967
83563.3064383396
83562.5093886725
83562.5876077729
83557.812804237
83557.8250651484
83556.7972823619
83556.8654544328
83552.6233466336
83552.9522082577
83551.5353222559
83551.2560561204
83546.9764427924
83547.7381116656
83546.2634670123
83545.5323771415
83542.6267150749
83541.6259998522
83542.9204984192
83543.7864904884
83541.7710356611
83540.5936288516
83539.7595022506
83540.9930172019
83537.9868672871
83538.7582553847
83537.5206773582
83536.6969692821
83534.5082237374
83534.7726315616
83537.9872716624
83537.7719464685
83539.6501712322
83540.0902249162
83536.5326727577
83536.5871616355
83535.1021226586
83534.3377173753
83534.4511406526
83534.0352830416
83528.9160895479
83529.295695356
83528.8504366202
83527.6864613545
83521.7319351526
83524.1246460462
83510.227345931
83499.1765294291
83492.2942203936
83498.0627185748
83483.4807201165
83482.5793711341
83466.327439094
83466.7046835526
83480.0469471637
83480.3661422695
83477.7115337439
83471.3134377117
83457.2365084911
83449.2312231501
83443.6881285707
83414.7212294955
83393.5050670652
83361.5546019327
83311.5728284329
83321.416654219
83329.1662948009
83324.307751777
83315.0233916376
83304.2903121782
83305.8323661648
83290.1266692127
83294.4627085142
83314.9634037317
83317.2287876361
83350.7984173714
83344.3252060593
83382.8789316111
83377.416248158
83385.045343929
83391.1496613176
83388.4039213863
83385.1027494129
83419.3928467639
83418.2182770168
83437.521373288
83433.6886046806
83463.6887680471
83460.7798607024
83460.4026674119
83462.4271286217
83467.8177839693
83463.907148028
83465.2312275048
83467.1406637039
83487.3326805206
83482.0747626563
83490.6782073745
83501.1965956899
83494.5650726342
83487.7004817836
83489.5859463556
83492.0831882842
83489.4748225105
83492.943028133
83496.9412831668
83493.1067358226
83515.8474810736
83507.4904754626
83515.9628422958
83534.0774997341
83509.9717599423
83506.8970024135
83502.3058896728
83511.6075674175
83504.1222859133
83499.6942826678
83492.2120867818
83490.0879073738
83497.0120724075
83496.2551440573
83499.4592573007
83500.3377856168
83499.8325680241
83499.3056280876
83491.692015242
83492.7561610765
83495.0749825011
83493.9080046277
83500.9340994743
83501.8602119266
83509.9876628249
83509.491040765
83520.3055269625
83520.8797778254
83533.7016295162
83533.5681050354
83546.7570908366
83546.7674779671
83553.1815512665
83553.3132084586
83559.3190896771
83558.8643612801
83582.2657188624
83583.396049183
83603.4188114123
83601.9299319936
83620.1235470146
83621.8400874607
83631.6306548829
83629.9204013644
83633.3207421771
83634.845398272
83657.5370396866
83654.7103752529
83650.8094822436
83653.1500794668
83672.5603498563
83670.9748545336
83677.0949728055
83677.8420488694
83683.3723450382
83683.2828752836
83674.1288738193
83674.0504772652
83676.3671237283
83675.5607734196
83669.8581873414
83670.6787188215
83658.5602003052
83658.1740887747
83650.2849484404
83650.7532553554
83649.8627074367
83649.1629998245
83638.5423806854
83638.9632957302
83631.0953733088
83630.721590513
83621.1148105019
83621.2717793241
83619.2528304856
83619.0575591456
83612.0174826258
83612.2249167649
83604.6059616933
83604.5818939095
83598.2390465279
83598.3007025533
83591.7284701422
83591.7324662715
83585.9087534855
83585.9543707488
83580.2260468653
83580.2598108907
83575.1755813872
83575.1518657854
83570.3667986387
83570.5772294168
83570.5073346349
83570.3438196546
83566.4018742964
83566.2656719943
83566.2828477686
83566.306185881
83565.8786342959
83565.7732144825
83565.4497504286
83565.4554318064
83562.914988874
83562.6297566213
83561.51303375
83561.5650510446
83561.5844359395
83561.2918956724
83560.0419733114
83560.0879399786
83555.5143562529
83555.375279055
83553.7213707649
83553.8614543739
83549.7094164411
83549.9925030199
83547.975907026
83547.7356490417
83543.5330782165
83544.2089849754
83541.3321367227
83540.7154277312
83536.8280129524
83537.4062398029
83534.6979260324
83533.8995439169
83532.5074840121
83533.4197332151
83530.6251713205
83530.1500418058
83526.3437369699
83526.1751856515
83522.9647447831
83523.2366602343
83527.0735734524
83527.0131773898
83531.0582822163
83531.5277654356
83526.4945610817
83525.4306609366
83529.4012341086
83532.1854447252
83528.7252353784
83524.8580267494
83520.2634694899
83521.6007584268
83544.0972700462
83530.6321699584
83524.2901610379
83514.8453744678
83535.9216898012
83528.2963023745
83525.024171552
83519.3053716778
83524.4401939683
83532.2328682165
83519.9675874995
83521.0579857385
83513.6118599185
83522.4409482453
83510.4159585685
83504.4065820747
83490.3760665601
83489.086186949
83487.5670310692
83483.6748285297
83470.4332946784
83467.2911337768
83450.9655902617
83451.6907155608
83440.3507224137
83440.5521315972
83454.5090514964
83455.7739081191
83440.6163434684
83436.0335825708
83437.0140037607
83431.0013215882
83411.1190481164
83415.134260565
83410.087148784
83404.410524763
83373.3897853302
83371.6918878864
83351.04085826
83350.7354587987
83337.2879220086
83332.7908599498
83307.8538877495
83314.5751161958
83312.6090530287
83311.3076262836
83329.0785049095
83306.5726903387
83298.5663188424
83311.3563029797
83327.8155711704
83313.2238603748
83303.768137977
83314.0038496938
83304.5597518596
83296.0981955564
83291.0590753214
83302.518681811
83293.7106599826
83283.6980223152
83274.9440131204
83281.0995768225
83293.7753201555
83288.0213735398
83314.8164817408
83324.4431037271
83323.0255317962
83332.0950440441
83329.0295906177
83319.2987023474
83317.9161346506
83318.8269027505
83355.9813421778
83356.2037925184
83349.4560788238
83349.7808962085
83343.0920957453
83342.8003735708
83336.0483173231
83336.1008308087
83382.2526679598
83381.3122619661
83416.7185165389
83417.8642464466
83444.3400141508
83444.0478064749
83446.9730463091
83447.245531334
83455.0072011774
83455.502941307
83461.732601268
83461.7848697782
83470.1679504023
83471.043055284
83476.0043972481
83475.4575864993
83484.2448919772
83487.0718383947
83485.9888346678
83487.4980166332
83490.4292734236
83489.1227469684
83480.0057020913
83481.6996669865
83485.7129233581
83487.2147749043
83484.2016689028
83482.7765294306
83469.6318102858
83471.4197256431
83475.0038286418
83473.2501914752
83483.602578948
83484.7262253298
83498.4672050804
83497.7417942295
83515.6140551476
83515.887614949
83536.9712514101
83537.0756945381
83534.6594942124
83534.3830983126
83561.9573946426
83562.7086154175
83593.1563526019
83591.7606524264
83616.518970691
83618.5180788748
83641.5745509823
83638.889378715
83651.0586411002
83654.0056357603
83674.2922380134
83672.0618071765
83676.3998337291
83678.4364642415
83687.9373924743
83687.076071084
83691.559740734
83691.9600690498
83687.8007683817
83687.5775570536
83686.4794078934
83688.0193411357
83686.0169738648
83684.6378122792
83678.3014743969
83680.2126192751
83673.391995967
83671.951993122
83667.2902964559
83668.4521617986
83657.7401433053
83656.8984787422
83650.9112035969
83651.6945393264
83644.5078100724
83643.8529819965
83634.7088042034
83635.1277403408
83627.7435982851
83627.3931343819
83621.844867751
83622.222181894
83615.2373976583
83614.9894704914
83608.9287448977
83609.1468368538
83602.6134985231
83602.5053971662
83596.7213153189
83596.8172272077
83590.8808491402
83590.851602677
83585.3193421189
83585.3614205866
83580.0532767008
83580.0626381243
83575.0780531059
83575.0536849519
83574.6077998196
83574.6576933784
83570.2559137665
83570.0668324945
83569.599921694
83569.7331919026
83569.0588438414
83568.9008605459
83568.038411944
83568.1265364406
83564.6126804038
83564.6975386998
83563.9743892935
83563.9653654894
83562.9252487865
83563.0152496251
83562.1202364287
83562.1062642573
83559.6088915769
83559.8751626622
83558.3121029327
83558.2754810364
83557.7260767504
83558.0040410263
83556.4120602705
83556.3383852879
83551.7964798795
83552.0787601476
83549.5703409457
83549.1713416519
83545.1781879858
83544.9447707802
83541.0764717324
83541.2623116058
83535.8544118404
83535.7899026212
83531.577678234
83532.1171413231
83529.3669924422
83528.5385379447
83527.0142606559
83528.0771503802
83525.2812776786
83524.4241829546
83520.3919691711
83520.5633096481
83517.2332025942
83517.7945995907
83516.5004449628
83512.7194848981
83518.1677782416
83518.7896088615
83521.9739747679
83521.6697528992
83515.5592088179
83515.6057299464
83510.3862249675
83510.5551082078
83513.3168624393
83512.5837285132
83505.6949032414
83506.117346354
83512.7676058617
83513.4895005159
83508.1301889252
83506.5098100987
83514.4805287501
83519.510841388
83507.8237861161
83504.0099513856
83497.4731912097
83503.2431553386
83494.3029900209
83491.1543185019
83483.0143170215
83493.6326340188
83471.1842018594
83472.9366134786
83457.3766748471
83460.6126609504
83436.1253739508
83434.2609067374
83419.6448320219
83421.2712860006
83404.2294001313
83401.4869250975
83424.9962116483
83427.4529750597
83419.9465040084
83406.4746259397
83377.416129641
83383.8082661905
83385.5609623593
83361.8353598689
83359.6885793592
83336.2916996457
83339.5210359181
83329.158184979
83328.4843931955
83311.0440942388
83307.6410966928
83311.9999449475
83305.79026637
83301.967490857
83310.2709717923
83291.8571356666
83288.2291787507
83281.9096740262
83283.4636850399
83284.2620670533
83279.4457648048
83288.9680991029
83294.8721972941
83288.8726538985
83283.0958978649
83279.5745572685
83285.982911365
83280.6764466725
83274.3465257533
83267.1857865243
83268.3806456642
83263.1637383462
83263.3779034794
83258.3862079631
83258.2520088722
83264.449939938
83261.9043824827
83265.8994865162
83267.1424984715
83269.2497748962
83261.4648722249
83257.0998468507
83253.6518726502
83288.6645000035
83285.1639350851
83271.761309422
83274.102101803
83254.7331150144
83250.2065995757
83229.6791572693
83234.2474508244
83285.3277930359
83281.9799846189
83267.2078036936
83270.0879808777
83251.7986024696
83246.1907019371
83222.031209626
83231.8032765281
83211.2869671799
83200.096353774
83181.6165850114
83189.4215318811
83217.1432964139
83211.1873881015
83208.2124236073
83210.183805042
83207.8126211236
83206.5706404905
83206.7717189306
83207.5299648861
83208.2492355624
83207.5653165859
83279.7008018924
83281.1847265807
83282.0143114918
83280.6452368347
83283.9378923788
83284.3123440592
83309.5346710516
83310.5252321143
83316.4150816218
83315.8714829952
83325.7394863275
83325.8776531851
83338.9838402421
83338.7200130221
83355.8297037298
83356.15378865
83377.6052626584
83376.7175549415
83399.7323523384
83400.9064224862
83426.3813259746
83424.8095994984
83448.1862539429
83449.9021073911
83472.6678893877
83470.6707855917
83488.647446594
83490.6702737741
83506.8547260252
83504.8250459016
83516.4604380467
83518.2558587499
83529.382948212
83527.892994917
83536.027270687
83537.0139837348
83548.1157020286
83547.7019071742
83560.914956533
83560.898994216
83579.5987592546
83579.607534075
83604.2673592566
83604.7430007627
83626.9700661178
83625.9266696638
83643.0590870289
83644.2300267353
83648.1865895229
83647.0854313183
83646.7278990349
83647.6154276618
83641.3407084541
83640.6001369706
83635.158391185
83635.7838363682