/*--------------------------------*- C++ -*----------------------------------*\
| =========                 |                                                 |
| \\      /  F ield         | OpenFOAM: The Open Source CFD Toolbox           |
|  \\    /   O peration     | Version:  2312                                  |
|   \\  /    A nd           | Website:  www.openfoam.com                      |
|    \\/     M anipulation  |                                                 |
\*---------------------------------------------------------------------------*/
FoamFile
{
    version     2.0;
    format      ascii;
    arch        "LSB;label=32;scalar=64";
    class       volScalarField;
    location    "300";
    object      k;
}
// * * * * * * * * * * * * * * * * * * * * * * * * * * * * * * * * * * * * * //

dimensions      [0 2 -2 0 0 0 0];

internalField   nonuniform List<scalar> 
209453
(
0.0158045493576751
0.016826875768674
0.0223829934165869
0.0212620011118534
0.0165572702979395
0.0164653932697307
0.0208298781409477
0.0201788030157664
0.019770512774407
0.0157907213166672
0.0160114235688896
0.0155311619704836
0.0153833860825032
0.0154603723217368
0.0155981762054564
0.0161721825053926
0.021126109530374
0.0208374952680891
0.0158860322137121
0.0159748167133979
0.0222448663000296
0.0223608970286497
0.0162941354894433
0.0156830980414261
0.0155350798766467
0.0156201266414535
0.015771972175126
0.0165425618497148
0.0236469516076628
0.0235491027926151
0.0161769362127426
0.0167390087119386
0.0247210295940303
0.0249203174170442
0.0171699890482847
0.0173112148668125
0.0253208089073471
0.023800417191011
0.0169738996817789
0.0171463888715871
0.0234347232039451
0.0226891942343237
0.0171519504908355
0.0169902367345731
0.0210298897066764
0.019651051570181
0.0165794645600258
0.0160329523897955
0.0186255112168766
0.0171719215633039
0.0155530588269088
0.0152644618731222
0.0163347241241197
0.015751217748281
0.015314178695555
0.0150262948977661
0.0150622848835961
0.0150494526524899
0.0150148220570614
0.0150111246187246
0.015008157212511
0.0150231962292208
0.0150383546749105
0.0150745437216125
0.0150477059780268
0.0152259513114016
0.016341576328273
0.0163916067902895
0.0152584500861203
0.0150607417502995
0.0150872161911555
0.0156036961119782
0.0157018202804925
0.015272656482589
0.0152904935644363
0.0150252625409444
0.0150264926352048
0.0155448901828362
0.0171624341656241
0.0169934050853465
0.015424368555302
0.0151092789055464
0.0151671415303031
0.0151830165382847
0.0151178163596138
0.015449204844384
0.0156441186958115
0.0156661021864225
0.0154658157295955
0.0153238407620472
0.015446284909131
0.0152039718627851
0.0151314000307723
0.015087170701631
0.0151274838316454
0.0152115841993571
0.0151446463099077
0.0152011312564301
0.0152674335155346
0.0153159718261439
0.0152606085687569
0.0153293164343876
0.0153915489300139
0.0155300622502082
0.0154186454355
0.0157805872552636
0.0160061256675469
0.0163357197616187
0.016172341344714
0.0173922534210499
0.026235315477461
0.0263029243158198
0.0176858186626841
0.0178003799082835
0.0267307487921467
0.0258505276799913
0.0174969666961883
0.0177582223355068
0.0267364434019212
0.0276184209902041
0.0177826693646485
0.0178456422251406
0.0273447269766875
0.0278066408737514
0.0177388182291181
0.0177958855661463
0.0280176693396443
0.0307054176827543
0.0193214713209646
0.0188951878224307
0.0297788362650599
0.029036594953872
0.018329091470109
0.0185405396191679
0.0307744340718853
0.0299231407358391
0.0178335371078368
0.0174068383824013
0.0269016548012897
0.024679280223527
0.0172489406534655
0.0168038628935206
0.023808682878518
0.0221855016072046
0.0166955838933874
0.0165815969683605
0.0207669450010328
0.0195442077541313
0.0163203497889344
0.0162470082837652
0.019402284407883
0.018487886697292
0.0160177642298073
0.0155545784602723
0.0172471306117101
0.0164286408356441
0.0152819631546809
0.0150548226558435
0.0150200966189431
0.0153218678665198
0.0158280070268497
0.0158364246047211
0.015286989449713
0.015011625808029
0.0150342986496854
0.0150180359616116
0.015007871565327
0.0150132637099982
0.0150342731966653
0.0150387333589384
0.015148964636368
0.0150953859986532
0.0151871192696007
0.0164385871913395
0.0164407584360581
0.0151168738479467
0.0150164278816523
0.0150045229065446
0.0152883782815275
0.0158302084250913
0.0159096311918379
0.0153437146476023
0.0150013262441086
0.0150126171010602
0.0150085538443766
0.0150047189467831
0.0150025596612718
0.0150049956901573
0.0150085837880461
0.0150037887654493
0.0150053325814215
0.0150157523741381
0.0150105631391583
0.0150049962593046
0.0150033097643503
0.0150043788191284
0.015001661333085
0.0150013539884555
0.0150032205002431
0.015004361494194
0.0150087654560978
0.0150060764681913
0.0150074496927074
0.0150168238087609
0.0150631065748883
0.0150326972335119
0.0150197882991081
0.0150293162669134
0.0150757419253894
0.0150561133290258
0.0150821535174615
0.0150998466708141
0.0151326950844614
0.0151178299110385
0.0151571949778106
0.015192405339069
0.0152354077242357
0.0151997570297969
0.0152431112536494
0.0152812206430588
0.0153341281156998
0.0152909549095535
0.01534469352139
0.01538728828232
0.0156683886917338
0.0155511658259244
0.0156317137740069
0.0157302479409501
0.0163823764800495
0.0162306913559647
0.0162314715260833
0.0163745783849051
0.0176257443992109
0.0177197155217758
0.0180751687102684
0.0177929858949063
0.0177336484808515
0.017961656022737
0.0192941113872975
0.0321928012260309
0.0312288250160031
0.0189181547239567
0.0184011882697052
0.030868433064153
0.0323803378753573
0.0185800583618315
0.0202449941724418
0.0344474966315804
0.0342233065739138
0.0196444770205533
0.0184346740183667
0.0310381674968951
0.0280334743804606
0.0173045958955255
0.0169416942731822
0.025662908938153
0.0253264893882505
0.0164358794152366
0.016385763814821
0.0236286628109946
0.0221418355691977
0.0163735788336973
0.0163750216007583
0.0207217642008832
0.0211354685232409
0.0164333852606674
0.0163603702637575
0.0194958675783377
0.0192715734709414
0.0160934273611414
0.0157614873490228
0.0184038125610133
0.0172328534553794
0.015424194233335
0.0152512142411684
0.0172105366063041
0.0174151626462499
0.0153793641255755
0.0151596926317662
0.0165732268985954
0.0166609552703282
0.0151422660530333
0.0150112344474017
0.0150038389239304
0.0153738830134513
0.0159613294924614
0.0159022978668541
0.0153415414566295
0.0150023014191986
0.0150088556478535
0.0150059440229606
0.0150026229225037
0.0150025860648085
0.0150062171663947
0.0150063692497907
0.0150024500244605
0.015002431850382
0.0150064857123947
0.0150067688033885
0.0150017009219678
0.0150009275267331
0.01500083443313
0.01500461285153
0.0150051051828664
0.0150150085535512
0.0150127052161495
0.0150306019890516
0.0150397922652664
0.0150868118884902
0.0150687920604172
0.015093871108104
0.0151068380760354
0.0151362413307916
0.0151272026121431
0.015114384013716
0.0151249221882189
0.0151585237940498
0.0151486871791053
0.0151545884735039
0.0151692615759113
0.015206828968663
0.0151912019370152
0.015228522912096
0.0152451756916377
0.0152820134735088
0.0152657094103101
0.0152855237345797
0.0153022630027872
0.0154079846842645
0.015366475746703
0.0153745123829266
0.0154172371767513
0.0156996067373959
0.0155877682090122
0.0156269135410145
0.0157327992300197
0.0157847402348244
0.0156966634671746
0.0162995495415807
0.016442824577811
0.0164322003630047
0.0162895999928654
0.0164818135995366
0.0165957049759377
0.0178455637700177
0.0180997328514857
0.0194826491685935
0.0355333090032567
0.0335327655415066
0.019177142699047
0.0199682380588345
0.020777387293939
0.0382758765302785
0.0355855939027467
0.0340195066306693
0.0190960964851756
0.0197522692944908
0.036058894682485
0.0386483134716926
0.0429866188969117
0.0215362925134069
0.0204081497677154
0.0193027735717629
0.0188119213280376
0.0188453758619756
0.0193096131206343
0.0204980219161256
0.0214612553186012
0.0457201406824031
0.0410244156283339
0.0432291387235488
0.020566977542992
0.0207426462165748
0.0397997071510322
0.0397149746863167
0.02078130568902
0.0207097392051779
0.0366078385545349
0.0204472147318634
0.0180822723493633
0.0204652235039464
0.0403031726076061
0.0351318416597787
0.0201567530180192
0.0195708554605766
0.0326965006253851
0.0295529678137485
0.017540794950368
0.0166026399666975
0.027291878239846
0.0280692630298698
0.0165675848473629
0.0164843152131486
0.0260419518983121
0.0242800678369295
0.0164561001819452
0.0164493675898001
0.0227560578709147
0.023488344182035
0.0165522810838542
0.0165792239600762
0.0213922958985331
0.0205309097579556
0.0164120231367038
0.0160190775943442
0.0197791018271604
0.0189777617590327
0.0158645415505261
0.0158740385288601
0.0196709974675737
0.0181592857836746
0.0154652074651545
0.0156207996387908
0.0185622695704637
0.0186799231595984
0.0154689983333713
0.0153447999615342
0.0175315958733131
0.0173243527887734
0.0151401031035085
0.0150691894798874
0.016555584300965
0.0165525841005813
0.0150711619950823
0.0150131859670538
0.0158998255670004
0.0153411548762894
0.0150033549732776
0.0150038490523409
0.0150084314371638
0.0150071830244013
0.0150026231803397
0.0150023884855113
0.015007562447009
0.0150079290473407
0.0150022030066366
0.0150016499960859
0.0150125847523
0.0150063389967483
0.0150048739881015
0.0150002282101891
0.0150000462414035
0.0150057538003416
0.0150043081336007
0.0150224276716983
0.0150379810733405
0.0150785584857481
0.0150527419453443
0.01501586685961
0.0150225500118613
0.015076787319535
0.0150478620228595
0.0151019558860833
0.015140780280317
0.0151668311271124
0.0151325980206908
0.0151733406962724
0.0152058970965524
0.0151434732247363
0.0151311520294379
0.0151670524315304
0.0151789904337069
0.0151696390229139
0.0151613004051841
0.0151952999162898
0.0152038352694905
0.015192965195194
0.0151829039674762
0.0152174496911019
0.0152279681154319
0.0152621580166603
0.0152514086516728
0.0152700060709527
0.0152817698198287
0.0153012669961134
0.0152843339933453
0.0153041067800056
0.0153224380476309
0.0153233329385828
0.0153051633160971
0.0153891072099493
0.0154294099736379
0.0154401218489913
0.0153995352666875
0.0154227498650174
0.015463836998249
0.015759226502919
0.015659840024994
0.015779859857897
0.0158414580431255
0.0165299507379621
0.0163891480825523
0.0166165403162434
0.0167043340740901
0.0172108129058812
0.0171276853994925
0.0186176184048403
0.0183505633023104
0.0171541842966328
0.0168523735880714
0.0163394665959536
0.0158360991743078
0.0157257427892829
0.0157294472322175
0.0156756357075035
0.0156654971491896
0.0156310756037199
0.01574512885482
0.015730585240187
0.016297932100048
0.0168627849001776
0.0268454270872681
0.023808532904379
0.0164504156782188
0.0158106108078097
0.0218195988119862
0.0201159882298711
0.015609567893095
0.0153210423259131
0.019323427384534
0.0182406398214546
0.0152209504374014
0.0152247845003404
0.0182247719119818
0.0173169623524423
0.0151433387103746
0.0153586773603639
0.0175243784377898
0.0166620156500517
0.0151467673331401
0.0150111651032946
0.0150055250608063
0.0153728569482249
0.0159609583223875
0.0159108080416301
0.015013065588307
0.0150018335172065
0.0153425001930053
0.0152870848283247
0.0158055491397898
0.0150152633026974
0.0150023367787102
0.0150034123537583
0.0150085623801129
0.0150069164414402
0.015003049308737
0.0150043717948442
0.0150095750925771
0.0150128063042946
0.0150588365307917
0.0150552831642132
0.0151641358444247
0.0165770325541262
0.0164011332653769
0.0150994873931241
0.0151581365550646
0.0163851304421898
0.0158073934181182
0.0152852768802812
0.0150065806296101
0.015028151206419
0.0150147080486951
0.0150046508782809
0.0150097121968504
0.0150328884852311
0.0150441151537369
0.0150091274794443
0.015027016538286
0.0153128722025596
0.0157399417163397
0.0150625490499631
0.0152805982151102
0.0163156944000211
0.0162936777848152
0.0162772458786525
0.0151432627358792
0.0152525687553236
0.0150607319715809
0.0150440718389759
0.0150190814329358
0.0150270030966725
0.0152725217382218
0.0152904668801127
0.0155948258349619
0.0156530529042003
0.0155925307181994
0.0154124454897421
0.0168737383208598
0.016983355689741
0.0171594989308046
0.0155444214191789
0.0159814815143602
0.0185689069589298
0.0182579847514724
0.0179215798672933
0.015700164334799
0.0158416118029394
0.0156362170848061
0.0154203092758648
0.0151317011610003
0.0152000001535051
0.0152266896289109
0.0151504113381096
0.0153081722519576
0.0154450052639261
0.0156580710199119
0.0154365940473223
0.0156965092777627
0.0159197027017242
0.018969119074991
0.0186179472607314
0.0195678542133424
0.015736345000929
0.015989509801926
0.0199253902055842
0.0205806472531288
0.01639089721301
0.0164709659191076
0.0209943537910389
0.0208361006652026
0.0205976535458749
0.015801759942608
0.0161212856158718
0.0155671292148969
0.0154198750491263
0.0152215148858764
0.0152769711113527
0.0153264627431481
0.0152745202040523
0.0152148899269768
0.015247963854082
0.0152903478692486
0.0152558675631173
0.0152024408124209
0.0152147225053543
0.0152509862510451
0.0152385196552063
0.0152298454149297
0.015238894435772
0.0152736152134466
0.0152639684976992
0.0152828437090141
0.01529371808301
0.015281696093057
0.0152698887056945
0.0152897352749846
0.0153035465586515
0.0153033479903516
0.0152896331685207
0.0153098072724139
0.0153265339524638
0.0153449124503045
0.0153242000241422
0.0153251435107426
0.0153457407257691
0.0154506171349938
0.0154107551485399
0.0154227277344129
0.0154581130176029
0.0154720847522153
0.0154384157615145
0.0154504478878993
0.0154848686260781
0.0154856183146004
0.0154513874490861
0.0156797517870506
0.0157637352518054
0.0157883679809385
0.0157039387607225
0.0158103734212046
0.0158666620358786
0.0158718083632118
0.0158326083888695
0.0159154965272901
0.0158757857318974
0.0158494261773182
0.0157935518588352
0.0157898351034116
0.0158483119692553
0.0157675896668235
0.0156774262613514
0.0156669244095278
0.0157560750098336
0.0154713641794047
0.0154348696658896
0.015434722462976
0.015471104815428
0.0154855331108238
0.0155216298540069
0.0155381275634225
0.0155471401576042
0.015547005763317
0.0155614748262179
0.0155617426921339
0.0155634984845966
0.0155630251627551
0.0155715337091133
0.015569834964977
0.015586794473514
0.0156096550976239
0.0156126101031789
0.0156725489891042
0.0158125732499327
0.0159009946486065
0.0154444889917808
0.0154711986264328
0.0161889447545583
0.023783729669328
0.0220990204585817
0.015935957984383
0.0155758613101172
0.0205819727844855
0.0205525625995163
0.0157764650643052
0.0153603787172786
0.0192930328074072
0.0200037746665532
0.0156789269210103
0.0154757126512558
0.0186406651171731
0.018512184869961
0.0155232870969807
0.0153747183197512
0.0180440013744542
0.0180754128109202
0.0155747455786145
0.0153233417425398
0.0171242293256828
0.0172039172218565
0.0154687608217414
0.0157221166527368
0.0182098534702142
0.0199875542022919
0.0163432042361794
0.016164944781417
0.0192466785166558
0.019537080484856
0.0165618538870639
0.0165847262660207
0.0201896179523812
0.0214811752984222
0.0168787306613175
0.016704913360352
0.0220795042128179
0.0220457836571416
0.0219987091026418
0.0158653772973731
0.0162157460726264
0.0156389037929961
0.0154916704039938
0.0155890564650729
0.0157365277170621
0.0153879610449254
0.0153339574041001
0.0154088863902962
0.0154714665955429
0.0153350359864448
0.0152995218857446
0.0153446864427646
0.0153777080108423
0.0152861506891596
0.0152739443335008
0.0152932643229314
0.0153063872149717
0.0152937058036327
0.015282834045736
0.015303275265131
0.0153164061929549
0.0153162166069235
0.0153031101783795
0.0153241917586946
0.0153407182118419
0.0153271708812913
0.0153102308445159
0.0153211035718695
0.0153354781308053
0.0153482662905372
0.0153350554061213
0.0153344240083908
0.0153473752885933
0.0153472517971374
0.0153342846752271
0.0153482792823807
0.0153647568512111
0.0153652211799855
0.0153485398509476
0.0153493779060264
0.0153658803640101
0.0153657478805841
0.0153492160330121
0.0154324254902686
0.0154654561801697
0.0154769376404564
0.015446019214476
0.0154555590238319
0.0154875085838773
0.015500309952316
0.0154676335644207
0.0154691256787762
0.0155015843335445
0.0157734100141208
0.0156950032401282
0.0157307131787518
0.0158115082051885
0.0158905041259122
0.0158350021029118
0.0159029554490328
0.0159265178450573
0.0162626118204755
0.0162734688200091
0.0163089928852617
0.0162990306481558
0.0167803306779099
0.0167021655103881
0.017232059426831
0.0173083013770253
0.0189920286889513
0.0185890724700178
0.0208918515793952
0.0447396599872401
0.0408551756983952
0.0203536685530262
0.0204740736250947
0.042930751673134
0.0451739588751819
0.0204544521142042
0.0207345793444155
0.0430966161109744
0.0436063200876608
0.0208286515779826
0.0209050269834779
0.0487656914809584
0.0441267678907674
0.0215300119659387
0.0223785505566246
0.0434282216101328
0.0379629319545006
0.0217059560803282
0.0214965142194985
0.0375267960510134
0.0350392090887755
0.0208210756191693
0.0203711639497376
0.0342748344363485
0.036668310545984
0.0193409513342651
0.0180959947604343
0.0328612285551447
0.0303192043158229
0.0170759953687164
0.0168942416982704
0.0330922628427009
0.0301151058440642
0.0166739655991254
0.0166066441924749
0.0274733538106414
0.0252842237188228
0.016566341515969
0.0165723150435022
0.0242604394383216
0.0228039867251936
0.0165566790541469
0.0161626090918626
0.0216932441736253
0.0205090747059784
0.0161125411715461
0.0160585380251459
0.0204441474231079
0.0159893328682795
0.016102764271996
0.0161624118965684
0.021830764202113
0.0227390577544215
0.0161457689540759
0.0160510946838022
0.0202820770023899
0.0153285250388311
0.0151295768525608
0.0151341579115238
0.0152865855975823
0.0159372254329903
0.0198891583978161
0.0191135192096951
0.0156804974768251
0.0160320825688554
0.0194298751475651
0.0204128496275896
0.016420980636333
0.0167964434767114
0.0211235378968391
0.0211291176612953
0.0166107996134557
0.016656972678276
0.0217151185726309
0.0224663177398321
0.0170421319627994
0.0170285334880458
0.0231021769651454
0.0234136159303212
0.0169004724475612
0.0162609809676927
0.0159071810802432
0.0227995378329648
0.0232484807396121
0.0243618572597436
0.0239098993267904
0.0165016418855831
0.0169711976043089
0.0159411255195273
0.0157491994811775
0.0161478376337913
0.0164222113305313
0.0155843601443991
0.015516139302935
0.0155452685077129
0.0156102755594411
0.0153993606379105
0.0153665600536067
0.015364979884646
0.0153968480160743
0.0153063960095606
0.0152931953980034
0.0153141493697007
0.015329389824128
0.0153290812720577
0.0153140247896184
0.0153357465707706
0.0153540709216894
0.015341254914544
0.0153246200173875
0.0153361703480946
0.0153501754243359
0.0153637081808239
0.0153509924293605
0.0153501443069394
0.015362828117741
0.0153629287603099
0.0153502776855797
0.0153354060022289
0.0153485530766339
0.0153632619297369
0.0153506687391819
0.015349980986299
0.0153626744046634
0.015361529175378
0.0153491593280638
0.0153490050806859
0.015361382645983
0.0153784268716889
0.0153628382780634
0.0153633219861144
0.0153792347690486
0.0153796905100958
0.0153639749794625
0.0153638315621581
0.0153795473718827
0.0153935717519
0.0153776718429988
0.0154580315383586
0.0154884655793341
0.0155029170861792
0.0154709397120414
0.0154831575067078
0.0155159767298859
0.0155177079653094
0.0154851699642954
0.0157075390718467
0.0157842257900799
0.0158347561408283
0.0157536594297931
0.0158594536259276
0.0159159828363688
0.0159579739574799
0.015937360400159
0.0159738528289003
0.0159874798296055
0.0164766902914188
0.0164757606562759
0.0164978691983153
0.0164935826899403
0.0168583365238246
0.0167900265415663
0.0173290562885809
0.017397219917212
0.0188476999376496
0.0185909408913627
0.0207471676684055
0.0475627354901473
0.0429517924521861
0.020351234571299
0.0204127624848858
0.0463025626020743
0.0518126064090303
0.0207789746165812
0.0186534994336147
0.0188742794655552
0.0189557754867839
0.0187471371183984
0.0208722893639028
0.0569733523021579
0.0502493173599092
0.0205213886828326
0.0207188622729235
0.0542748966330156
0.0493220631110599
0.0204842069597168
0.0209263775741496
0.0479699832355409
0.0538627937727194
0.0214054143116555
0.0211553973612751
0.0550325322819878
0.0504145824850784
0.0239081471872091
0.0251916969270329
0.0486121675997549
0.0415798635352086
0.0235669900680906
0.0233948929110036
0.0412554156892678
0.0384781721294255
0.0221679618681802
0.0204660091790367
0.0370670891450217
0.0432377433537391
0.0211422264462203
0.0197157775392087
0.040460027471262
0.0449536840004062
0.0189762883800245
0.0183349387604839
0.0404431218200411
0.0364573874107671
0.0173801798923666
0.0169634392806187
0.0339312210735661
0.0310271276898743
0.0167975026397321
0.0166969729329581
0.0284649060764581
0.0261618456533434
0.0166159105497277
0.0162398523352091
0.0244404104759234
0.0229164874947097
0.016192185708513
0.0162061588588282
0.0230200187104981
0.0242595036435856
0.0164375120146948
0.017290840921927
0.0257018191923324
0.0273707428095851
0.0175713597548867
0.0174074601838768
0.0281516732602706
0.0301890515040577
0.0178921153601778
0.0173560976878552
0.0298172098333773
0.0259210878203057
0.0166498308971105
0.0170565792188742
0.0256912295575268
0.0238416185339997
0.01623263828751
0.015996801820376
0.0221039773527509
0.0242001203573809
0.0165844884267952
0.0162750054578319
0.0216279623972531
0.0221133665429738
0.0168605933189049
0.016122386945417
0.0207024748010667
0.0200650150079463
0.0161554576213303
0.0163399277319157
0.0209189948754734
0.0218101514454833
0.0167727289842102
0.0168870599151273
0.022881960197889
0.0227299900887209
0.0167350025573961
0.0169329861164514
0.0233682809760251
0.0244074630638992
0.0173154357834846
0.0175527231481762
0.0248792615341997
0.0247796909052947
0.017429526279254
0.0179607930338044
0.0263592372065619
0.0256535381032775
0.0252092387215965
0.0171483923342276
0.0176987248039088
0.0183640671499436
0.017911240999307
0.0268430962012744
0.0271597785791427
0.0279775204776942
0.0184746092345409
0.0187927529816632
0.0300514287584018
0.0292422581965534
0.0293401048895393
0.018958616455052
0.0191192336948393
0.0185226186021304
0.0180688738763801
0.0178095217794435
0.0183822681811891
0.0165062116208308
0.0162469325363121
0.0162311482139356
0.0164955548681082
0.0156227190386467
0.0155517627178708
0.0155863526656757
0.0156553285608686
0.0156314909931885
0.015571316076042
0.015390074989349
0.0154233873266026
0.0154167187367707
0.0153856520901882
0.0154063379412494
0.0154375665848607
0.0153548824498776
0.0153362594228117
0.015348453602138
0.0153641543498434
0.0153783824816382
0.0153641518009951
0.0153630241614914
0.0153772476048686
0.0153766136394004
0.0153625487121256
0.0153511837322822
0.0153639530838427
0.0153798615729579
0.0153675802892911
0.0153669465280396
0.0153791695952152
0.015377984283913
0.0153658386188398
0.0153660600305661
0.015378185298681
0.0153938932381084
0.0153814215615018
0.015365475784973
0.0153783926125448
0.0153773910625838
0.0153643586422081
0.015363335932425
0.0153759877414891
0.0153757863463401
0.0153631558823691
0.0153766722290375
0.0153923414611673
0.0153934938258296
0.0153773519101276
0.0153778149599838
0.0153937749955748
0.0154080222663627
0.0153914703386966
0.0153913103137483
0.0154077247956293
0.0154999758431498
0.0154695866579122
0.0154856823505672
0.0155181811735441
0.0155317027728744
0.0154982115433458
0.0155007163248734
0.0155338955190304
0.0157957173954501
0.0157194960586198
0.0157754413143563
0.0158578146639772
0.0159419374950428
0.0158838161327282
0.0159081873095007
0.0159679288027912
0.0160164957484488
0.0160030911589045
0.0160325995552613
0.0160457820040774
0.0166011728267946
0.0166139511978021
0.0166280344109178
0.0166049482083522
0.0169413429714551
0.0168838868098706
0.0174453624081233
0.0175092506095392
0.0176424908831209
0.0175779462500041
0.0177228701951466
0.0177877360630671
0.0190601062501399
0.0188642370230957
0.0210007777613532
0.0631916588133911
0.055010668225888
0.0206653245073493
0.0210034222144262
0.0600804301247062
0.0609692980980817
0.0219343174035271
0.0213046466222546
0.0612789695398127
0.0578047303879135
0.0242924434501158
0.0265519598156528
0.0614537382134062
0.0556142260546228
0.0269201873564253
0.0271775718524026
0.052440591255488
0.0452288805599078
0.0250546685313302
0.0247454930859482
0.0445382057156596
0.0484191155409429
0.0246894693317539
0.0233854370620653
0.0480552198311174
0.0520329821613678
0.023540781834969
0.0215998303582622
0.0495532637153135
0.0445444677662925
0.0202478842222927
0.0197824873425665
0.0498912161339776
0.04481334618102
0.0180879188941551
0.0176066821498511
0.0408463104895063
0.0372149214573278
0.0172406789899768
0.0170326703937677
0.0347257965887114
0.0317195621401019
0.0168008459580334
0.0166305917061255
0.0290503807034499
0.0266071479431636
0.0165288805083399
0.0170832660945668
0.0259837609118878
0.0268264546002375
0.0175984360294562
0.0176885350069931
0.028472594611357
0.0307465388353602
0.0177858489549821
0.0179672337526318
0.0334123781513343
0.0363821902837188
0.0181468300367484
0.0178527353508908
0.0312291849958238
0.0338918701702036
0.0184600373839798
0.0179100753038871
0.0331151273362119
0.0285320482925117
0.0170644080873081
0.0178734547084488
0.0288585203905098
0.031351434539474
0.0190588193987898
0.0185543244980681
0.0298957593808335
0.0268502738478367
0.0170020252704008
0.0174115840275643
0.0261315841841111
0.0285888006014865
0.0175194633202959
0.0173401307343741
0.0264790789939767
0.0247282043876574
0.0172420320684071
0.0171672223316531
0.0231081441719011
0.0219108123051691
0.0164738062714904
0.0164036826983284
0.0215954954625575
0.0227004472127869
0.0170321613202463
0.017119078774925
0.0249698734423981
0.0245759538650994
0.0170061176072998
0.0169991792486933
0.0244685029542867
0.0252857726862151
0.017484633010948
0.0184825182164905
0.0273964806675813
0.02701404503012
0.0185066916966396
0.0184121013913957
0.0276299526108529
0.0281544753217193
0.0188875656385646
0.0191578411591044
0.030699040662812
0.0332355575118867
0.0192722681003473
0.0190910838231796
0.0323799181732581
0.0314865565170209
0.0321737003743264
0.0190745380802869
0.0196331722240566
0.0183090024307008
0.0179637348049229
0.0163310806100002
0.0165833664156382
0.0165303809209154
0.0162905060951177
0.0163328777508174
0.0165384241117419
0.0156882196638313
0.0156204392000681
0.0155939539293528
0.0156486222827687
0.0154493601408776
0.0154143904612492
0.0154272654683948
0.0154577110796716
0.0154724842153615
0.01544401174478
0.0154355708482256
0.0154613802145542
0.0154494129362478
0.0154246532504745
0.0153640184196256
0.0153784424330479
0.015395611637296
0.0153817905337048
0.0153814779730999
0.0153950045502515
0.0153938036304163
0.0153801595070895
0.0153791145238924
0.0153925495728785
0.015409527178159
0.0153957631868991
0.0153839112163421
0.0153965849357097
0.0153952962255664
0.0153827204879927
0.0153811925168917
0.0153936505604103
0.0154098453581344
0.0153966779001477
0.0153966745469626
0.0154100020519418
0.0153938327625306
0.0153801575248781
0.0153785372314997
0.0153923280834923
0.0153906365721825
0.0153773289853407
0.015377124098568
0.015390359480709
0.0154064047639564
0.0153903199554447
0.0153911751815587
0.0154078976019035
0.0154226129639776
0.0154053381923197
0.0154054635446252
0.0154225936651694
0.0154221915493119
0.0154052817341023
0.0154813780913124
0.0155117534052241
0.0155336451298126
0.0155006236718922
0.015513631028811
0.0155478202123712
0.0155505077879416
0.0155166610405244
0.0157318544128571
0.0158077527853262
0.0158808600173158
0.0157973703640917
0.0158192710784704
0.0159037446002631
0.0159939905754804
0.0159324727869579
0.0159567172893553
0.0160201134076044
0.0160748437293884
0.0160613114908263
0.0160907089891352
0.0161044238612229
0.0166928738063175
0.0167265273375668
0.0167369186986835
0.0166921652819497
0.0170300803500349
0.0169833296091275
0.0170836030414552
0.0171235318539066
0.0172190877066381
0.0171880325668501
0.0178760670687996
0.0179374599384691
0.0191792192754824
0.0189976411198077
0.021151698611882
0.0702806252290065
0.0604321418586133
0.0208363417192742
0.021229585827301
0.0669516904354143
0.0695373075917849
0.0223829728285903
0.0214970399720513
0.0682796620202931
0.0664054972079308
0.0240854992008992
0.0262408822909209
0.0709550140799115
0.062146715680023
0.0267399287396761
0.0250853919842803
0.0514577470992534
0.0468880945813592
0.0249702102962483
0.0246787189415193
0.0459254752578521
0.0492799401629492
0.0246717452059905
0.0248205806953384
0.0546746217031874
0.0617562975793182
0.0252306552463357
0.0235070403934568
0.0564862969805416
0.0631498841606964
0.0244148452755503
0.0228148054510799
0.0609242007921649
0.0499879829629421
0.0209699771390858
0.0209458430024398
0.0554075535361752
0.049213982978969
0.0187350993677327
0.0181338439366317
0.0466075929429646
0.0420818537795502
0.017685761836016
0.0173232108735425
0.0381630724420283
0.0397556215494514
0.0179403279723183
0.0176407000282619
0.0358872869457217
0.0324560434127175
0.0175115777517987
0.0174488668224401
0.0295890046290665
0.0173869424820752
0.0173280661974563
0.0174204777198024
0.0166938822344245
0.0156550604585843
0.0156107106237982
0.0170075651204496
0.0182593639232432
0.0309238351129203
0.0365789324836087
0.0182065915807747
0.017958286149549
0.0337026413314589
0.0308728212627505
0.0177287219928004
0.0177660108016627
0.0301799157855129
0.0278832483366639
0.0172893573008293
0.0178451102087884
0.0295079282160188
0.0273658087921904
0.0175180652329748
0.0172684280190467
0.02558851689627
0.024220929674122
0.0171069930421886
0.0165798823892322
0.023301103210972
0.0245677331207661
0.0167617617648611
0.017000448304323
0.026091863044265
0.0279211098456875
0.0175138795544154
0.0173171759147919
0.026002644940068
0.0244036466597896
0.0171737617354661
0.0171452466878961
0.0162067573729405
0.0170361380703942
0.0246002174486776
0.0234934420857034
0.0171584209398134
0.0170489322247707
0.0172419918459363
0.0165298296202855
0.0174300106016698
0.0272059637225716
0.0288772614468268
0.0180109631308113
0.0173407428719685
0.0175967846045099
0.0180263302391041
0.0327434687827678
0.029903531536117
0.0175926809135291
0.0182083538648623
0.0320418836217691
0.0340193830423177
0.0191409216552626
0.0197430468390163
0.0310451075263346
0.0312484997243341