/*--------------------------------*- C++ -*----------------------------------*\
| =========                 |                                                 |
| \\      /  F ield         | OpenFOAM: The Open Source CFD Toolbox           |
|  \\    /   O peration     | Version:  2312                                  |
|   \\  /    A nd           | Website:  www.openfoam.com                      |
|    \\/     M anipulation  |                                                 |
\*---------------------------------------------------------------------------*/
FoamFile
{
    version     2.0;
    format      ascii;
    arch        "LSB;label=32;scalar=64";
    class       volScalarField;
    location    "300";
    object      p;
}
// * * * * * * * * * * * * * * * * * * * * * * * * * * * * * * * * * * * * * //

dimensions      [0 2 -2 0 0 0 0];

internalField   nonuniform List<scalar> 
209453
(
83643.7149132172
83658.8610865336
83680.5452032981
83657.6931989774
83643.2271191169
83631.754034163
83621.8133385378
83609.551034629
83614.405301117
83622.4749205903
83621.9295727556
83619.2267270678
83619.2319456109
83629.9080266045
83629.4335514824
83638.0764365534
83641.9170575491
83639.8385011972
83639.3587424842
83652.1963992482
83660.5659642922
83666.581112669
83652.1112062364
83642.6366133294
83642.8797600808
83652.8854811194
83652.4558659164
83655.8512624445
83662.4480106338
83660.8225235897
83656.037491092
83659.4359183499
83660.7110526362
83659.7403730777
83658.5338513955
83656.8902724584
83662.5530109883
83669.4912967143
83657.0358686859
83656.3490168529
83670.0108939463
83657.1312562635
83651.9217228377
83657.2634102993
83676.5543434822
83618.3339000508
83625.956638129
83601.0670846249
83573.1813151438
83580.6859912437
83597.0790938484
83593.8937518973
83569.5789697184
83659.1959566385
83667.5611606359
83627.3539928341
83617.4834154891
83611.4836518297
83611.7205823235
83612.2350131212
83611.8941425062
83610.8864387967
83612.2683626075
83606.8927340848
83606.8083729634
83600.8827071256
83599.3085636634
83581.5906606895
83597.0112726897
83614.4365683864
83610.4508126611
83629.1838598749
83666.12188327
83660.7238503648
83640.5816136253
83619.6791952411
83623.5424756236
83599.873488143
83588.5886434747
83595.784571143
83602.2754170571
83606.6826797158
83605.6261254747
83606.3801685466
83608.3910170728
83609.1336084115
83607.6702954576
83610.2233243769
83610.7998349066
83613.22210264
83613.2916991762
83610.0816085289
83610.5775989874
83613.4225891249
83613.703452659
83622.9576477048
83621.9337372939
83631.946752408
83631.5256159163
83642.4835454018
83643.5043866394
83654.270378504
83653.3773396736
83665.4532946733
83665.7619798626
83662.0811706832
83661.9098895561
83674.2639714138
83674.4206251613
83668.3079565359
83667.6540878403
83665.7191693057
83668.1036512079
83668.6750803302
83666.2283991628
83655.0116288598
83664.7090111998
83665.9304482464
83669.9731289287
83687.5770379367
83673.0558943561
83672.8766820397
83681.6874570889
83679.89048608
83676.0259302263
83676.2757359704
83677.7497515792
83680.2333772994
83679.9822534971
83678.1696243125
83677.9870041936
83676.429876439
83676.4693186127
83673.9419648739
83672.1221442337
83669.888060645
83669.4464343641
83657.9525449865
83658.2269950231
83651.3085113344
83650.1464909609
83644.8129660135
83645.78330532
83644.0807397292
83643.2666324382
83645.7221615191
83653.1211403725
83654.9583888284
83633.3852429125
83629.8063323004
83639.8747885079
83605.2766669382
83609.258256722
83601.9073722142
83599.0941372065
83587.9319165672
83597.0636297125
83607.8094242605
83616.3500101559
83636.4716561886
83610.7870721541
83603.2152972572
83621.2037877839
83608.0715499564
83604.448132722
83605.9195600012
83607.0709085244
83610.3914231779
83608.3506922376
83602.2474289792
83600.236900636
83602.5192837611
83601.9768104299
83602.0907082624
83600.4528662943
83601.5910574691
83601.6238951612
83604.0574457076
83612.7785555555
83598.5297319054
83596.7413531345
83607.0975976097
83601.2771346611
83598.9415240324
83599.4094282656
83600.06363781
83601.7978743889
83601.4904073994
83604.110626913
83604.243262016
83606.480968636
83606.5330492505
83607.1572340529
83607.1416956005
83607.6008369649
83607.4959514688
83604.5171275012
83604.7316356119
83604.8956465526
83604.6895654749
83605.0385660668
83605.2336955296
83605.94144313
83605.8250798579
83606.9288669055
83607.2214635032
83607.3524587238
83607.1427380599
83613.039521043
83612.9269419577
83622.3864981733
83623.1257369061
83630.1935873485
83630.4798477075
83631.2587884854
83630.8941585276
83640.9294954768
83641.532577517
83653.5279734924
83652.885670919
83667.4662689781
83667.7187337835
83685.3460751722
83684.9996767601
83679.1254286915
83679.8265301845
83691.0624144761
83689.6129607944
83687.0257374193
83688.1966372839
83682.7113851875
83682.9387243837
83681.416339207
83680.7062814505
83683.915446261
83683.7991808005
83691.1802948149
83691.3595323731
83686.9337820248
83685.9501472558
83682.9462609624
83685.5828428111
83683.5040752262
83676.7255990017
83688.6410596827
83690.2495823634
83688.3044842742
83688.8624836723
83688.1204243038
83683.1452333866
83667.5934998216
83666.6001164152
83659.7187298796
83659.862911296
83651.6649779083
83652.3340793808
83644.7492547033
83643.3763107689
83639.4454870551
83640.7815650125
83636.8805156527
83636.6132516494
83635.0451220128
83635.4934526781
83633.8872525888
83630.7994264962
83624.3391587687
83626.2856375253
83617.0237087639
83617.6279216968
83605.6959475232
83596.5648907117
83601.2408601146
83603.7828677386
83602.1042267665
83600.5600260455
83601.9185888014
83601.3248597162
83600.3900737313
83600.2161398015
83599.2460616982
83598.6784698326
83595.5361063411
83597.3646277818
83599.5722384807
83591.5295687733
83591.4702819317
83595.4573627562
83594.810900428
83594.2563451312
83596.7906611872
83596.7617410631
83599.0504602086
83599.0473466487
83601.4669476953
83601.3630409192
83603.3957961207
83603.6439252706
83600.8270280246
83600.6711233451
83601.9107945282
83602.1368000405
83602.317232265
83602.0655181657
83602.3817938611
83602.6591425142
83604.4933090647
83604.2067809993
83609.4704701529
83609.3603907524
83618.9179701305
83619.7906068442
83626.5154932359
83626.7742849398
83629.2203719516
83628.9581846784
83639.6774165063
83640.2150426173
83641.1597013727
83640.6237291836
83653.6903794365
83654.3838528665
83670.9298530201
83670.6933744542
83691.9357416779
83692.0221614219
83710.1665585653
83709.2874356473
83704.6537377632
83705.5872731665
83699.5921890412
83698.7647731553
83694.931907977
83695.8122902729
83706.7062268291
83706.590635605
83701.2819388191
83701.3964831196
83696.8072800644
83696.1918013956
83692.5424786706
83693.2489228756
83702.1166912004
83701.4982074855
83698.6624688345
83699.2204479425
83695.3847664478
83693.0535592121
83690.7370759156
83694.2765360793
83702.2991779422
83702.772312388
83701.9555405844
83702.200589526
83692.7814336053
83697.5403248949
83701.4949228667
83702.2239681358
83713.816147656
83707.7359252286
83705.7321846065
83706.3172061245
83709.5865447221
83708.2574968369
83712.4148266946
83712.0283317453
83704.8234400142
83707.8486151824
83705.3962898944
83698.2209326064
83700.5434806632
83705.6085402206
83703.456526841
83701.829855455
83699.1514091144
83696.1048624375
83699.329658814
83688.4244965129
83705.0079923202
83698.644772034
83683.3032613226
83673.2115602326
83665.869678662
83671.9610789009
83654.6677232202
83652.2645884474
83652.3230932308
83652.1636195786
83647.7702902986
83648.2593178065
83636.1199981034
83635.4876791118
83634.2269576741
83635.956910724
83634.6831791599
83632.8682332584
83630.9830978853
83630.2000190586
83634.2054977255
83628.5315061254
83628.6997197219
83633.2308596988
83625.3507444353
83624.5679287097
83618.4035773327
83602.6757962474
83609.1417649481
83612.0648927688
83607.5486454637
83596.9278777609
83601.282143306
83603.7004660071
83601.2768419607
83602.3993961103
83597.5223738533
83597.086865159
83599.4096072695
83600.3508871859
83596.4775908252
83596.4210095431
83596.3241314405
83596.0119383987
83593.9971884635
83594.2004477778
83591.7904675449
83588.143584944
83591.577480311
83592.1391059806
83594.2303452801
83594.1500332273
83596.1580205992
83596.2250313045
83598.5156621698
83598.5382694323
83595.3172615303
83595.7444386984
83598.7106202682
83598.4089912869
83599.7339995873
83599.8733320031
83600.1938313045
83600.1320429691
83600.7795612789
83600.3180716542
83599.1872466512
83600.3676693428
83594.9195353924
83595.344684031
83598.6580786605
83598.2338196595
83598.439486516
83599.116319828
83602.8484560386
83602.9556907134
83613.1959557171
83612.7076411762
83618.5525138306
83618.1539821621
83623.3087370111
83623.5523056294
83633.5942140229
83632.8878529227
83636.8839025289
83637.4768675092
83651.6892840981
83650.9905860868
83653.5144765046
83654.2196538386
83672.402065581
83672.2113711185
83696.6973214446
83696.5483621087
83720.9149247098
83720.3354473401
83715.7926585244
83716.6814791778
83734.1986960515
83734.1856057078
83726.8242284942
83726.8359740212
83719.4590054012
83719.3689667463
83712.7661199349
83712.8295075678
83726.0666933135
83726.4542407608
83718.695782751
83718.2758626341
83712.9240678596
83713.0983357895
83706.8297797462
83706.9639030708
83717.4459954096
83717.4647565093
83711.2761115527
83711.4468917861
83707.1305925493
83707.1377566094
83708.1135944875
83704.4100606199
83695.6983177772
83709.8896095532
83702.055402655
83687.3871996773
83674.9486475633
83659.0510112763
83634.5007789352
83605.0243138025
83578.2289962338
83548.8557968095
83531.6609126654
83533.3690883569
83564.0744824909
83565.2272349828
83581.980684607
83579.2163782189
83591.6353725935
83592.0046138349
83586.3569883211
83584.6155126693
83592.0789603368
83592.8732101362
83589.409667302
83588.6324348824
83594.4410256874
83593.9221037427
83592.1480626448
83593.0113491764
83593.0225218318
83592.5839879364
83588.7227263666
83589.5919661756
83588.5991926598
83583.2263950671
83585.3821045034
83589.0294160817
83590.0477759109
83591.0755408388
83592.7800008234
83583.5678584059
83589.5598328727
83590.8374199367
83593.5045998636
83593.2847748878
83591.9014441191
83592.0967919559
83592.1466949952
83591.9149430603
83592.865165151
83592.5291158694
83591.9529419928
83591.0870112441
83589.8252672865
83586.9654993247
83590.2281470728
83589.0334861311
83587.4493899625
83585.9501257466
83598.3917116973
83593.067597122
83590.4927840222
83593.9080337779
83595.0459643895
83597.1826133169
83595.1239687848
83599.1290369716
83599.7875903358
83610.7241971903
83642.3757217856
83639.6736242575
83602.9355358395
83580.0867939096
83553.9647613968
83566.4109939956
83583.7575248217
83587.7737423162
83582.9416912433
83600.2996130679
83596.5307737928
83604.5990470146
83608.3138828056
83638.5564943369
83619.3840688979
83610.0863343694
83644.119672819
83586.8408053731
83589.8279519311
83582.1673518494
83576.1372183019
83567.4953820513
83582.8656737658
83581.8328020924
83557.2798621198
83570.6068319661
83583.3555150779
83591.0924469388
83587.428452441
83592.2909275442
83593.97945164
83595.1984411585
83592.8037980022
83596.6210354913
83597.6187325071
83596.9178935785
83596.6445579195
83593.3874880165
83594.5487660844
83592.7731128818
83591.9128065988
83569.0119977262
83583.4002000293
83590.9209946662
83600.5734299078
83599.6026173181
83585.3800686443
83592.4345745539
83604.427464591
83612.4463758584
83625.1372949152
83612.1741378196
83611.1903070548
83612.1331000912
83610.4787314396
83606.4224889634
83607.4219233046
83613.9132173113
83613.2746679269
83620.7698410483
83622.1676857921
83626.9999533236
83625.9311056667
83636.7165048064
83637.7455253435
83646.9694132083
83646.3453424848
83664.1796468888
83664.5274944938
83670.4056265454
83670.0884029299
83696.2528103436
83696.1207347325
83725.9072754615
83725.6272389941
83723.5395776112
83724.0050848937
83746.6097703869
83747.0750913431
83741.7468777164
83741.4837086001
83762.1186387565
83762.9599826983
83753.1123803348
83752.2771698656
83743.4711861488
83744.0735349541
83734.4624772189
83733.9166082161
83742.7157520521
83743.8091937967
83749.1789866597
83749.3302926375
83744.1030608313
83743.9848993632
83738.7765042455
83738.9515694709
83734.2242322567
83734.0470714613
83730.5632463411
83730.6845175846
83727.3970081631
83727.297918583
83724.4781270248
83724.5963797703
83720.3603443927
83720.534451383
83720.4198720886
83719.8277989817
83723.7934581618
83724.4952240968
83726.4099466763
83725.4221841108
83729.1146447787
83730.1397294501
83733.5711241356
83732.4497069713
83739.3725451504
83740.2409006184
83744.6654216867
83742.7520924486
83758.305974741
83758.059350633
83754.9575335802
83753.3698826774
83751.8974374744
83748.9909158344
83741.5092991073
83737.0192641566
83730.3697041829
83715.4963550625
83693.9041552154
83666.6568128303
83629.3564211699
83587.0729512019
83557.1792717871
83540.3126347648
83524.1954374932
83508.9042687223
83505.7727669441
83548.0326847267
83551.244118771
83573.9046238089
83571.2346875231
83564.4100532385
83566.1768208125
83581.2026317591
83579.557340172
83576.8346939194
83577.5190471128
83586.8473921452
83586.9003541118
83585.5054178017
83585.8552235878
83586.1359840197
83584.4443164597
83582.8901780896
83586.7726434062
83589.113883429
83586.602899079
83584.0738188203
83586.5038972475
83588.6485287094
83589.3415694827
83582.9393682523
83590.3700266542
83600.9847688767
83630.3751783542
83581.5128787788
83594.0481003326
83597.266936314
83572.0666152853
83648.3749502578
83624.7746177046
83623.4581287732
83644.0318123352
83631.4198216973
83626.2029138774
83619.4495701321
83618.9614019602
83614.4433150503
83615.5330900278
83619.8004510323
83618.7323622519
83629.2532772916
83630.1938034654
83637.5782510162
83636.8458069271
83650.5382777134
83651.2263927206
83669.5373603243
83669.6998667314
83688.8753454162
83688.6269229806
83722.6911339899
83723.1708885614
83725.2611302559
83725.2178655315
83751.3481806146
83752.5229361302
83751.7960464373
83750.9401504776
83776.0793542803
83777.473881446
83770.681676306
83769.5427198904
83785.0587024265
83786.3105800923
83794.5026064505
83794.7369226916
83788.9934497846
83788.7917148311
83782.3968785714
83782.6806327309
83776.2766612334
83775.9639864121
83771.8173568846
83772.0216758493
83765.8874480708
83765.7440581757
83759.4053001134
83759.6349001192
83753.669982887
83753.4665002464
83762.4970400166
83762.7199825746
83757.8066555197
83757.6329360156
83751.5227726091
83751.7371630493
83746.9166020411
83746.7079263551
83741.1852716803
83741.497491524
83737.4451580629
83737.1947709854
83732.679096314
83732.9783827114
83729.374521941
83729.2735590719
83726.7058642239
83726.5112190817
83730.0521909269
83730.2343550285
83726.2017651184
83726.1147691723
83719.8023992737
83719.9542546841
83717.157427949
83717.8378383021
83716.2070438136
83715.210901305
83714.6304071171
83715.0219604761
83713.3555312991
83716.2662475603
83721.9589727933
83719.8979475393
83713.765970314
83713.6654093237
83696.9672425618
83704.2453668293
83716.7178229671
83717.1757901671
83713.6104572061
83711.914107544
83700.2303344154
83703.3664740256
83695.2148723318
83691.4095325994
83677.691245977
83683.7477234666
83668.4887948979
83665.4267660528
83648.9756209288
83647.3178644411
83631.7551290448
83630.5180728441
83634.7987449257
83633.5445959382
83636.2537497448
83636.3556070869
83618.7893998385
83618.7708899163
83621.2868949991
83621.3864000468
83621.6770698621
83621.7187965341
83623.3793154132
83623.0659378895
83617.5480771954
83619.8264321098
83631.8677247452
83625.0736105232
83619.7417111145
83629.6666398141
83613.9856853702
83611.1017548341
83620.1756267674
83621.6983792919
83617.0391765157
83610.9807140282
83606.4479538481
83617.5831867601
83586.9675972808
83592.0383523484
83600.816923254
83604.0374444319
83598.5432717474
83592.8264929234
83587.0062967356
83581.9600806782
83576.4483187875
83576.8445772154
83576.1459777971
83579.822901286
83582.1071547956
83573.0670606994
83584.7769419824
83582.8177187302
83587.9222423558
83593.43752502
83592.459715509
83592.6296460773
83597.6345699466
83594.4270966752
83609.9635272791
83607.3006351891
83613.8992615215
83627.6905952136
83629.2736832543
83614.9749472085
83615.0497264086
83616.0830600356
83619.6472338484
83620.9543884798
83609.22289988
83610.2744291483
83610.1499875283
83607.4357036782
83619.526134755
83621.1086246505
83620.5122356767
83619.3133363752
83646.1861163727
83646.1955643059
83664.7558432642
83665.2582359186
83681.7826688093
83680.8405024191
83700.5160634371
83701.317064219
83712.8999951462
83712.1149128017
83736.3761007103
83738.3311111565
83749.0421107918
83747.5743210217
83773.1793716538
83774.9978147
83779.3046360144
83777.5854970879
83798.6137188798
83800.0825278539
83808.8708474166
83809.016222037
83806.7767507158
83806.5439171444
83802.1483785096
83802.46961974
83797.6658080576
83797.2779231376
83809.541674755
83809.5064451498
83805.8179983729
83805.8999232102
83799.2457672335
83799.224436253
83793.7688365278
83793.704105363
83786.6855644855
83786.8530353127
83781.8740370963
83781.7708405571
83774.7711321213
83774.8949316375
83769.3307455134
83769.136998022
83777.4307485962
83777.5510025942
83770.8374128015
83770.5610916624
83765.2524845364
83765.4513315367
83759.2176555232
83758.8886118119
83753.6600960441
83753.8752053909
83748.2010956617
83747.8564993829
83743.2125128972
83743.5345920663
83738.7694102131
83738.3890847147
83734.2480699399
83734.2464547819
83739.2242516117
83739.1817224912
83735.9574712767
83735.8165041912
83739.9212518493
83740.0174691018
83736.210394557
83736.2858761983
83730.465011079
83729.9592860544
83725.5130930454
83726.835691726
83725.784729541
83724.9618950787
83724.8905608203
83724.4899293614
83731.2215395057
83730.097528591
83731.3511726346
83732.8446802435
83735.3389407943
83734.1915912563
83741.800032362
83742.8106421094
83739.2808957737
83737.2182919414
83735.7070330327
83737.6358914478
83732.8228667181
83732.4664358263
83726.3383027083
83726.0435265757
83721.3133421821
83721.5119570905
83730.0053346484
83728.5356092929
83725.8593508551
83730.6362185859
83723.8764186625
83719.5774568745
83708.9461664654
83712.3900885788
83699.0504691033
83694.8254498508
83681.4528202178
83688.0774484843
83672.9151267502
83666.7565522764
83653.851256803
83663.6993186192
83648.2863273846
83649.6136346672
83614.9654996852
83615.801477214
83584.2478415049
83583.0717925218
83602.3951454411
83603.2670915703
83612.8537748275
83612.9826026312
83598.2131372047
83598.0096707144
83604.1534997734
83605.9394245899
83610.8835211869
83610.3783445536
83612.2931337887
83612.8746738645
83602.3241373854
83597.9481902882
83615.5306812733
83611.5909922642
83604.1041496811
83614.4914944456
83577.4194879632
83591.6362042106
83577.2805617771
83571.329995645
83557.7685403729
83554.6860035245
83535.2938054432
83541.6783362777
83492.3219017967
83495.5966706826
83461.0203748489
83459.4392649637
83435.2697651216
83434.6290905796
83403.4873397652
83409.7234055286
83484.9713275531
83485.7927459557
83538.2086568799
83535.5146774789
83532.1567163094
83530.7335442099
83560.7422230157
83560.2878965264
83551.7828601413
83557.1197757014
83568.4816581834
83556.5126530834
83577.0984339772
83577.8404323303
83569.4431730808
83550.840493613
83568.7643433968
83569.0027721567
83572.1754422449
83576.1472465668
83586.615975496
83581.3779852254
83588.3804536272
83593.6767319671
83595.9936199482
83593.3409247525
83599.2477812783
83607.1960440873
83611.2822634179
83602.6272569721
83593.604520089
83590.9875667141
83598.1389061299
83601.4846219291
83604.6657341633
83601.8400889159
83593.1206657864
83595.5742579358
83591.0004899777
83586.6111332832
83580.2694516422
83585.4910858959
83577.4403857961
83575.1901609162
83581.5582343102
83583.1774139936
83585.1547054327
83583.7227671266
83588.0583691789
83588.8462671881
83598.7820597017
83597.3954462188
83603.3228107586
83604.3426442158
83625.6661252543
83625.5290742277
83643.1932200474
83643.0567564065
83644.4670592445
83645.149972265
83671.2733944559
83670.4106855045
83696.4109886021
83698.430177224
83720.6602684743
83718.6286165472
83737.7473468414
83739.69667424
83762.8082188345
83760.9853358327
83782.8083955412
83784.0037484187
83789.1690427053
83789.0927750494
83798.9661868753
83798.9270922609
83803.6336043156
83803.8633005444
83806.4382752911
83806.1760457985
83818.315756646
83817.8177219062
83819.9003224605
83820.3315754203
83817.80956007
83817.5657342239
83814.7464143844
83814.9605267637
83824.4655409085
83823.8746476706
83818.7038903871
83819.0467070866
83815.0673444939
83814.7945032549
83808.3901395263
83808.5397131741
83802.8005570922
83802.7463953977
83795.761698668
83795.6992176119
83790.3639038661
83790.4493817178
83783.532157434
83783.3498727418
83791.0246339038
83791.0191950315
83784.840939669
83784.8523762132
83778.1417251265
83778.201650626
83772.4378593579
83772.4233028355
83766.0684614834
83766.197881161
83760.3404097098
83760.2865384972
83754.3405864429
83754.4919373726
83749.1725384375
83748.9908528542
83743.6594043506
83744.045792456
83749.5818279813
83749.3027273661
83744.4623587453
83744.4058950993
83749.8066386788
83749.7823173385
83746.2945410095
83746.1191455551
83750.3726855759
83750.4699355029
83746.57206577
83746.6277861852
83740.5182166402
83739.9893312016
83748.3763389743
83748.9382149371
83756.1090092895
83755.6319898029
83748.4409628879
83749.3993010015
83745.2216830587
83742.9174178569
83741.3231250471
83743.5860422859
83738.5560162694
83737.5811649532
83733.0011433646
83732.7996772818
83727.2544752945
83727.946020521
83717.2097657823
83717.3999251954
83711.626794949
83716.1605149059
83711.6347411131
83704.6194610706
83706.326107846
83705.4673196822
83694.0858378022
83693.0949924402
83678.8032853156
83687.9252741683
83665.9270979979
83666.8197606095
83667.7593684563
83666.7149065028
83649.8164733129
83659.876430659
83635.3118846553
83632.2114586298
83592.6365172307
83593.4823846975
83554.2178105623
83556.0646488429
83530.2181367461
83527.4522941956
83559.3135167935
83560.5294236633
83583.1458227468
83582.7791544564
83558.7389160753
83559.5551229334
83581.1912785813
83579.5807406105
83589.8063613267
83584.4448091056
83600.1348179328
83599.055851347
83589.653912492
83592.1115445975
83573.6449716372
83578.3679326175
83568.7336261666
83576.8830756835
83553.678440874
83549.6230104189
83517.1628878907
83514.2601102215
83491.5309636259
83489.0260179236
83467.935660302
83472.2309118954
83416.9528018145
83419.0215424644
83375.5414331571
83376.7409227639
83351.6074835479
83342.1780458916
83311.1721267855
83328.0931011972
83321.5951741353
83302.6777018291
83363.3968823735
83360.1816883291
83462.0979517281
83463.5083175449
83467.5711484592
83461.8854711412
83453.8586097838
83458.2406970286
83501.0144795235
83503.1903040336
83544.1696277409
83533.7438959551
83541.5878898655
83539.6621019699
83556.4891044852
83548.1185836622
83556.595107716
83556.2776213895
83554.9638585673
83550.2328287457
83539.4284086055
83545.9534649442
83543.6903225222
83545.514932466
83557.2691427214
83556.8552311498
83571.8670811937
83569.0685404055
83575.7925231547
83577.1910310112
83589.1336819683
83585.5078169167
83581.9801409913
83568.1999937657
83555.9856463562
83569.8634114671
83571.3226170814
83571.48455549
83561.2189794453
83560.083678659
83563.2267141456
83563.2176514647
83566.0370837233
83566.4917122372
83569.2952731493
83568.2471965586
83579.6032206599
83580.3245677162
83595.682777881
83595.4161151712
83619.038976233
83618.9702671887
83610.8971829932
83611.018585044
83643.0230431196
83642.6163150443
83674.6183854252
83675.6485350637
83711.30897642
83709.7670365322
83724.4983058824
83724.3262758681
83720.6732670632
83720.493655698
83742.1062653838
83742.5964882978
83758.8210390932
83758.6187682142
83775.5390337427
83775.7686125604
83781.116892359
83779.5269537334
83794.023017494
83795.1940281071
83807.9531107346
83806.849815605
83813.8615510865
83814.497837923
83820.7767216366
83818.9274182826
83824.9192430147
83826.3444727033
83829.2314765949
83828.1684056654
83826.5303417879
83827.2975767493
83831.8878617044
83830.7982759809
83828.8443524785
83829.7057155931
83825.0928011022
83824.5114895753
83820.8840073186
83821.3587115719
83815.3103227671
83815.0189622378
83809.6186415641
83809.8626558367
83803.2565403942
83803.132688205
83797.6744185145
83797.766948901
83803.9168651597
83803.7487228929
83797.5128537262
83797.5898487559
83791.6246030421
83791.559090448
83785.1718511951
83785.1773713738
83779.1690990555
83779.1859089527
83772.8675670788
83772.8081340524
83766.7503390945
83766.8174652463
83760.8174565743
83760.6844430055
83754.983867268
83755.1049172273
83760.9032336779
83760.757467365
83754.7647737634
83755.0979272365
83760.5845693647
83760.3425051658
83755.19861132
83755.1114150682
83760.3589037678
83760.3516782088
83756.6157824317
83756.35951306
83760.2299753939
83760.3843824418
83755.9809057336
83755.8339694793
83763.8391256049
83764.2145242087
83770.8224475025
83770.2313604779
83761.8366359079
83761.448505749
83753.5610227603
83754.5286448832
83749.8473073152
83747.4868406618
83745.6760999448
83748.050161867
83742.7820496153
83741.3267424856
83735.7920879761
83736.3105147733
83730.5402104284
83730.5677931152
83723.014139041
83721.7863275768
83713.1051412315
83714.9164586873
83702.8954181956
83703.4137347433
83691.2666997829
83689.0470651263
83693.4693323827
83691.7412025163
83679.9853259811
83680.4547253973
83678.703332297
83679.5873986742
83676.8661236923
83676.004983884
83678.1732265358
83675.6144942992
83660.0740910083
83665.7021237006
83643.099363094
83648.0269537582
83611.7445254916
83609.3244414051
83562.1382579594
83560.555719149
83514.3206335692
83518.1458706968
83490.7432387692
83485.8136763247
83450.0644037547
83454.6512041823
83497.1414394813
83495.0113917679
83530.5608204924
83531.5790754687
83504.7188149877
83503.5933173387
83532.9971666214
83533.6162550754
83563.8525582614
83560.6698188159
83577.9088255303
83583.220531039
83571.6318769804
83557.6623384207
83528.5488699316
83484.4846744058
83439.4126519126
83388.0198313356
83344.8200505169
83321.7777660921
83319.8381319435
83303.6746559529
83301.4044166798
83357.7257625186
83355.5767372724
83417.4614805704
83415.1195762225
83405.1529144288
83404.0750011158
83397.3353497196
83398.280313641
83391.2675985697
83390.2033912265
83450.6773759767
83452.5586397104
83500.8075473326
83501.2920355834
83540.1926089377
83534.7822480116
83534.1710720232
83535.1491880572
83504.2042106193
83501.6297797064
83455.1113075746
83454.1693085517
83451.5978182832
83453.3529102868
83498.1330479806
83499.3511426757
83538.3497046736
83531.1297924522
83531.3514168065
83532.7896836896
83507.8497638439
83514.0114056946
83534.1122600114
83534.9470715863
83503.2479730929
83464.0329311651
83465.5350207123
83427.1232358735
83433.4561454032
83368.0413006978
83370.8490636877
83413.7691595955
83351.2949201236
83345.2827722983
83345.747069462
83331.1647057939
83329.4453709963
83313.6252881497
83316.0315144861
83306.1690446369
83305.0757384335
83314.2871311165
83314.6946375476
83312.3432819174
83309.3804086048
83308.4344246037
83314.2774188486
83309.5998893774
83306.4899422615
83305.9653861322
83311.7836756215
83286.4524000816
83295.2963336879
83295.7151526286
83283.3066153421
83293.4523741791
83298.1551889183
83303.9914201389
83303.0520264224
83311.350076315
83311.4745858133
83323.9725883852
83324.0607453738
83328.0543535048
83332.2717283783
83333.6043116752
83329.7289440909
83332.4491670852
83334.326541596
83364.3061189774
83365.0104762351
83373.9135991142
83373.503499523
83384.8893330601
83385.0693400854
83399.9638757368
83399.4277773303
83415.4252139275
83416.1923723063
83432.9292716819
83431.9016428711
83447.4025738412
83448.6181042571
83462.6438637237
83461.344410565
83472.5198284334
83473.6895360966
83483.2079540949
83482.5128222141
83491.4077950142
83491.2052508759
83504.3028008777
83505.3135211156
83526.5284654824
83524.5487814335
83563.8741968251
83566.0443524493
83625.1904877096
83624.342744144
83694.2098795009
83693.5855434027
83751.7903566034
83753.4549010023
83786.3599450832
83784.5530694664
83800.50815032
83802.048461048
83809.4302531515
83807.9451553419
83813.0527055516
83814.5765284017
83817.0834738243
83815.7206788916
83817.9952858033
83819.1694219562
83818.851426108
83817.9012419155
83817.0108820561
83817.8170077331
83814.9182208739
83814.4049089127
83811.4312622881
83811.8007309834
83807.2653064731
83806.9656780476
83802.1974030562
83802.406121891
83796.8106279002
83796.7235522644
83791.0384318405
83791.0844509584
83784.9428093044
83784.9223639664
83778.779729226
83778.7389309944
83772.5051349791
83772.5922812314
83766.534561072
83766.4528825935
83771.8778542229
83771.9459931089
83765.8730596507
83765.5942115422
83770.8399500782
83771.0261609017
83765.3415367022
83765.4663228603
83770.229128722
83770.1831493665
83765.8141953749
83766.1328705337
83769.3223220879
83769.1100458537
83774.0319343934
83774.3777219766
83776.7021840408
83776.4455026771
83780.3254844452
83780.6760780786
83781.7418453732
83781.4326563834
83774.3047587393
83775.1792450919
83765.3002872537
83765.5213057902
83757.8770865742
83757.0502708426
83750.6103376715
83752.4305333019
83750.008865177
83748.5435556495
83744.5014335995
83745.6265034273
83738.8393486821
83738.4723569612
83732.5379186781
83732.9031358244
83723.860172368
83724.2075545856
83713.3186603466
83713.1603349302
83703.4292811109
83702.3419638466
83689.6074680485
83690.7198653015
83689.4100796449
83689.3707056471
83685.7801207421
83684.837802762
83668.1739566264
83670.1214595612
83663.8538614076
83660.0587115826
83644.9044876466
83648.5620182102
83646.3481535034
83646.9951905875
83626.4784633352
83623.7622391301
83595.2095346392
83600.9748980674
83559.9908343145
83554.3087214646
83517.0980129347
83509.654270025
83458.1029900497
83464.893205763
83440.6983783064
83432.7952088199
83396.1443306795
83404.0896017435
83378.1541674974
83372.4156411953
83422.6253616215
83426.3466039019
83467.7908840113
83465.7454840642
83448.4691699591
83447.1838426395
83413.6514060059
83408.2450467468
83383.2232576371
83389.5370822194
83326.0869168222
83322.7379589042
83287.8084088046