/*--------------------------------*- C++ -*----------------------------------*\
  =========                 |
  \\      /  F ield         | OpenFOAM: The Open Source CFD Toolbox
   \\    /   O peration     | Website:  https://openfoam.org
    \\  /    A nd           | Version:  13
     \\/     M anipulation  |
\*---------------------------------------------------------------------------*/
FoamFile
{
    format      ascii;
    class       volScalarField;
    location    "4";
    object      nuTilda;
}
// * * * * * * * * * * * * * * * * * * * * * * * * * * * * * * * * * * * * * //

dimensions      [0 2 -1 0 0 0 0];

internalField   nonuniform List<scalar> 
54636
(
0.025155
0.0168814
0.0139387
0.0129031
0.0125511
0.0124345
0.0123956
0.0123811
0.0123742
0.0123687
0.0123623
0.0123534
0.0123409
0.0123244
0.0123047
0.0122836
0.0122656
0.0122535
0.0122521
0.0122621
0.0122794
0.0123011
0.0123224
0.0123403
0.0123546
0.012365
0.0123722
0.0123775
0.0123807
0.0123829
0.0123842
0.012385
0.0123853
0.0123857
0.0123857
0.0123858
0.0123859
0.0123856
0.0123856
0.0123856
0.0123857
0.0123856
0.0123856
0.0123856
0.0123856
0.0123856
0.0123856
0.0123856
0.0123856
0.0123856
0.0123856
0.0123856
0.0123856
0.0123856
0.0123856
0.0123856
0.0123856
0.0123856
0.0123851
0.0123337
0.0414195
0.0363607
0.033655
0.0322947
0.031647
0.0313514
0.0312198
0.0311613
0.0311326
0.0311152
0.0310995
0.0310806
0.0310559
0.0310261
0.0309914
0.0309594
0.030936
0.0309229
0.0309229
0.0309394
0.030967
0.0310024
0.0310375
0.0310683
0.0310923
0.0311102
0.0311228
0.0311313
0.031137
0.0311406
0.0311425
0.0311439
0.0311441
0.0311446
0.0311447
0.0311447
0.0311446
0.0311445
0.0311444
0.0311443
0.0311442
0.0311442
0.0311442
0.0311441
0.0311441
0.0311441
0.0311441
0.0311441
0.0311441
0.0311441
0.0311441
0.0311441
0.0311441
0.0311441
0.0311441
0.0311441
0.0311441
0.0311441
0.0311429
0.0310491
0.0462926
0.0437388
0.0422032
0.0413518
0.0409081
0.0406882
0.0405825
0.0405318
0.0405067
0.0404921
0.0404803
0.0404671
0.0404503
0.0404378
0.0404209
0.0404041
0.0403921
0.0403865
0.0403884
0.0404044
0.0404265
0.0404454
0.040462
0.0404764
0.0404878
0.0404966
0.0405025
0.0405064
0.0405089
0.0405102
0.0405108
0.0405111
0.040511
0.0405108
0.0405106
0.0405105
0.0405104
0.0405102
0.0405101
0.0405101
0.04051
0.0405099
0.0405099
0.0405099
0.0405098
0.0405098
0.0405098
0.0405098
0.0405098
0.0405098
0.0405098
0.0405098
0.0405098
0.0405098
0.0405098
0.0405098
0.0405098
0.0405098
0.0405089
0.0404375
0.0480483
0.046653
0.0457842
0.0452863
0.0450183
0.0448808
0.0448125
0.0447792
0.0447626
0.0447538
0.0447479
0.0447421
0.0447418
0.0449165
0.0450323
0.0450863
0.0451102
0.0451308
0.0451357
0.0451497
0.0451657
0.0450195
0.0449094
0.0448403
0.0448019
0.0447823
0.0447727
0.0447682
0.044766
0.0447648
0.044764
0.0447634
0.0447629
0.0447625
0.0447623
0.0447621
0.0447619
0.0447617
0.0447616
0.0447616
0.0447615
0.0447614
0.0447614
0.0447614
0.0447614
0.0447614
0.0447614
0.0447614
0.0447614
0.0447614
0.0447614
0.0447614
0.0447614
0.0447614
0.0447614
0.0447614
0.0447614
0.0447614
0.0447608
0.044715
0.0488117
0.0479569
0.0474215
0.0471125
0.046945
0.0468582
0.0468148
0.0467935
0.0467833
0.0467786
0.0467768
0.0467786
0.0469097
0.0475485
0.0484145
0.0485303
0.04855
0.0485922
0.0485659
0.048559
0.0485656
0.0481046
0.0475112
0.0471628
0.0469729
0.0468751
0.0468268
0.0468037
0.0467927
0.0467874
0.0467848
0.0467834
0.0467826
0.046782
0.0467817
0.0467815
0.0467813
0.0467811
0.046781
0.046781
0.0467809
0.0467809
0.0467809
0.0467809
0.0467809
0.0467809
0.0467809
0.0467809
0.0467809
0.0467809
0.0467809
0.0467809
0.0467809
0.0467809
0.0467809
0.0467809
0.0467809
0.0467809
0.0467805
0.0467509
0.0492028
0.048629
0.0482698
0.0480626
0.0479503
0.0478921
0.047863
0.0478489
0.0478424
0.0478399
0.0478404
0.0478584
0.0483458
0.0491774
0.0495113
0.0495372
0.0494086
0.0495034
0.0495368
0.0494099
0.0494148
0.0489241
0.0484731
0.0481886
0.0480236
0.0479339
0.0478873
0.0478639
0.0478524
0.0478467
0.0478438
0.0478423
0.0478415
0.047841
0.0478407
0.0478405
0.0478403
0.0478402
0.0478401
0.0478401
0.0478401
0.04784
0.04784
0.04784
0.04784
0.04784
0.04784
0.04784
0.04784
0.04784
0.04784
0.04784
0.04784
0.04784
0.04784
0.04784
0.04784
0.04784
0.0478397
0.0478195
0.0494286
0.0490175
0.0487604
0.0486123
0.0485322
0.0484908
0.0484702
0.0484602
0.0484556
0.0484541
0.048455
0.0484702
0.0489568
0.0495841
0.0498731
0.0498832
0.0498437
0.0498642
0.0498784
0.0498397
0.0497477
0.0492699
0.0489365
0.0487234
0.048598
0.0485287
0.0484922
0.0484734
0.048464
0.0484593
0.0484569
0.0484556
0.0484549
0.0484545
0.0484543
0.0484541
0.048454
0.0484539
0.0484538
0.0484538
0.0484538
0.0484537
0.0484537
0.0484537
0.0484537
0.0484537
0.0484537
0.0484537
0.0484537
0.0484537
0.0484537
0.0484537
0.0484537
0.0484537
0.0484537
0.0484537
0.0484537
0.0484537
0.0484535
0.0484389
0.0495705
0.0492617
0.0490688
0.0489578
0.0488979
0.0488669
0.0488515
0.0488441
0.0488408
0.0488397
0.0488403
0.0488507
0.049212
0.049662
0.0499172
0.0499163
0.0499092
0.049893
0.0499158
0.0499084
0.0498013
0.0494514
0.0492048
0.0490452
0.0489504
0.0488975
0.0488693
0.0488547
0.0488474
0.0488437
0.0488418
0.0488408
0.0488402
0.0488399
0.0488397
0.0488396
0.0488395
0.0488394
0.0488394
0.0488393
0.0488393
0.0488393
0.0488393
0.0488393
0.0488393
0.0488393
0.0488393
0.0488393
0.0488393
0.0488393
0.0488393
0.0488393
0.0488393
0.0488393
0.0488393
0.0488393
0.0488393
0.0488393
0.0488391
0.0488281
0.0496655
0.0494251
0.0492751
0.0491889
0.0491423
0.0491184
0.0491065
0.0491007
0.0490982
0.0490974
0.0490981
0.049102
0.0492229
0.0495001
0.0499421
0.0499294
0.04993
0.0499297
0.0499291
0.0499301
0.0498487
0.0495741
0.0493828
0.0492587
0.0491845
0.0491429
0.0491207
0.0491092
0.0491033
0.0491004
0.0490989
0.0490981
0.0490976
0.0490974
0.0490972
0.0490971
0.0490971
0.049097
0.049097
0.049097
0.049097
0.0490969
0.0490969
0.0490969
0.0490969
0.0490969
0.0490969
0.0490969
0.0490969
0.0490969
0.0490969
0.0490969
0.0490969
0.0490969
0.0490969
0.0490969
0.0490969
0.0490969
0.0490968
0.0490882
0.0497322
0.0495398
0.0494198
0.0493509
0.0493137
0.0492947
0.0492852
0.0492806
0.0492786
0.049278
0.0492787
0.0492818
0.0493617
0.0495744
0.0499503
0.0499445
0.0499445
0.0499444
0.0499443
0.0499445
0.0498798
0.0496599
0.0495069
0.0494076
0.0493481
0.0493145
0.0492966
0.0492873
0.0492826
0.0492802
0.049279
0.0492784
0.0492781
0.0492779
0.0492778
0.0492777
0.0492776
0.0492776
0.0492776
0.0492776
0.0492775
0.0492775
0.0492775
0.0492775
0.0492775
0.0492775
0.0492775
0.0492775
0.0492775
0.0492775
0.0492775
0.0492775
0.0492775
0.0492775
0.0492775
0.0492775
0.0492775
0.0492775
0.0492774
0.0492706
0.0497808
0.0496233
0.0495251
0.0494689
0.0494385
0.049423
0.0494153
0.0494116
0.04941
0.0494095
0.0494099
0.0494164
0.0495665
0.0498063
0.0499607
0.0499533
0.0499548
0.0499546
0.0499529
0.0499547
0.0499021
0.0497218
0.0495963
0.049515
0.0494664
0.0494391
0.0494244
0.0494168
0.049413
0.0494111
0.0494101
0.0494096
0.0494094
0.0494092
0.0494091
0.0494091
0.049409
0.049409
0.049409
0.049409
0.049409
0.049409
0.049409
0.049409
0.049409
0.049409
0.049409
0.049409
0.049409
0.049409
0.049409
0.049409
0.049409
0.049409
0.049409
0.049409
0.049409
0.0494089
0.0494089
0.0494032
0.0498172
0.049686
0.0496042
0.0495574
0.0495322
0.0495193
0.0495129
0.0495099
0.0495086
0.0495082
0.0495085
0.0495134
0.0496716
0.0498622
0.0499639
0.0499665
0.0499635
0.0499683
0.049966
0.0499624
0.049925
0.0497677
0.0496623
0.0495946
0.0495545
0.049532
0.04952
0.0495139
0.0495108
0.0495092
0.0495085
0.0495081
0.0495079
0.0495077
0.0495077
0.0495076
0.0495076
0.0495076
0.0495076
0.0495076
0.0495076
0.0495076
0.0495076
0.0495076
0.0495076
0.0495076
0.0495076
0.0495076
0.0495076
0.0495076
0.0495076
0.0495076
0.0495076
0.0495076
0.0495076
0.0495076
0.0495076
0.0495076
0.0495075
0.0495028
0.0498453
0.0497343
0.0496651
0.0496255
0.0496042
0.0495933
0.049588
0.0495854
0.0495843
0.049584
0.0495842
0.0495858
0.0496382
0.0497705
0.0499653
0.0499387
0.0499224
0.0499564
0.049939
0.0499235
0.0499262
0.0497967
0.0497101
0.0496544
0.0496214
0.0496031
0.0495934
0.0495884
0.0495859
0.0495847
0.0495841
0.0495838
0.0495836
0.0495836
0.0495835
0.0495835
0.0495835
0.0495834
0.0495834
0.0495834
0.0495834
0.0495834
0.0495834
0.0495834
0.0495834
0.0495834
0.0495834
0.0495834
0.0495834
0.0495834
0.0495834
0.0495834
0.0495834
0.0495834
0.0495834
0.0495834
0.0495834
0.0495834
0.0495834
0.0495794
0.0498674
0.0497722
0.049713
0.0496791
0.0496609
0.0496515
0.0496469
0.0496448
0.0496438
0.0496434
0.0496434
0.0496437
0.049652
0.0497668
0.0498939
0.0499068
0.0498335
0.049862
0.0499012
0.0498995
0.0498985
0.0498073
0.0497401
0.0496972
0.049672
0.049658
0.0496506
0.0496468
0.0496449
0.049644
0.0496435
0.0496433
0.0496432
0.0496431
0.0496431
0.0496431
0.049643
0.049643
0.049643
0.049643
0.049643
0.049643
0.049643
0.049643
0.049643
0.049643
0.049643
0.049643
0.049643
0.049643
0.049643
0.049643
0.049643
0.049643
0.049643
0.049643
0.049643
0.049643
0.049643
0.0496396
0.0498851
0.0498026
0.0497513
0.0497219
0.0497061
0.0496981
0.0496941
0.0496922
0.0496913
0.0496909
0.0496908
0.0496907
0.0496916
0.0497139
0.0497322
0.0497401
0.0497326
0.0497381
0.0497421
0.0497442
0.0497449
0.0497315
0.0497183
0.0497079
0.0497008
0.0496964
0.0496938
0.0496924
0.0496916
0.0496912
0.049691
0.0496909
0.0496908
0.0496908
0.0496907
0.0496907
0.0496907
0.0496907
0.0496907
0.0496907
0.0496907
0.0496907
0.0496907
0.0496907
0.0496907
0.0496907
0.0496907
0.0496907
0.0496907
0.0496907
0.0496907
0.0496907
0.0496907
0.0496907
0.0496907
0.0496907
0.0496907
0.0496907
0.0496906
0.0496877
0.0498994
0.0498272
0.0497823
0.0497566
0.0497428
0.0497357
0.0497323
0.0497306
0.0497298
0.0497294
0.0497292
0.0497291
0.0497291
0.0497309
0.0497334
0.0497353
0.0497356
0.0497361
0.0497366
0.0497369
0.049737
0.0497361
0.0497345
0.049733
0.0497317
0.0497308
0.0497302
0.0497298
0.0497296
0.0497295
0.0497294
0.0497294
0.0497293
0.0497293
0.0497293
0.0497293
0.0497293
0.0497293
0.0497293
0.0497293
0.0497293
0.0497293
0.0497293
0.0497293
0.0497293
0.0497293
0.0497293
0.0497293
0.0497293
0.0497293
0.0497293
0.0497293
0.0497293
0.0497293
0.0497293
0.0497293
0.0497293
0.0497293
0.0497292
0.0497266
0.0499109
0.0498466
0.0498063
0.0497831
0.0497706
0.0497641
0.0497609
0.0497594
0.0497586
0.0497583
0.0497581
0.0497579
0.0497579
0.049758
0.0497583
0.0497588
0.049759
0.0497592
0.0497593
0.0497593
0.0497592
0.0497591
0.049759
0.0497588
0.0497586
0.0497585
0.0497584
0.0497583
0.0497583
0.0497582
0.0497582
0.0497582
0.0497582
0.0497581
0.0497581
0.0497581
0.0497581
0.0497581
0.0497581
0.0497581
0.0497581
0.0497581
0.0497581
0.0497581
0.0497581
0.0497581
0.0497581
0.0497581
0.0497581
0.0497581
0.0497581
0.0497581
0.0497581
0.0497581
0.0497581
0.0497581
0.0497581
0.0497581
0.0497581
0.0497557
0.0499173
0.0498543
0.0498123
0.0497866
0.0497718
0.0497637
0.0497594
0.0497572
0.0497561
0.0497556
0.0497553
0.0497552
0.0497551
0.0497551
0.0497552
0.049756
0.0497565
0.0497568
0.049757
0.0497564
0.049756
0.0497557
0.0497555
0.0497554
0.0497553
0.0497553
0.0497553
0.0497553
0.0497552
0.0497552
0.0497552
0.0497552
0.0497552
0.0497552
0.0497552
0.0497552
0.0497552
0.0497552
0.0497552
0.0497552
0.0497552
0.0497552
0.0497552
0.0497552
0.0497551
0.0497551
0.0497551
0.0497551
0.0497551
0.0497551
0.0497551
0.0497551
0.0497551
0.0497551
0.0497551
0.0497551
0.0497551
0.0497551
0.0497551
0.0497527
0.0252081
0.0170329
0.0141791
0.0131989
0.0128743
0.0127697
0.0127357
0.012723
0.0127169
0.0127119
0.012706
0.0126979
0.0126864
0.0126709
0.0126517
0.0126307
0.0126125
0.0126001
0.0125977
0.0126059
0.0126214
0.012642
0.0126628
0.0126808
0.0126957
0.0127062
0.0127141
0.0127194
0.012723
0.0127254
0.0127269
0.0127276
0.0127282
0.0127284
0.0127285
0.0127286
0.0127288
0.0127285
0.0127285
0.0127284
0.0127286
0.0127285
0.0127285
0.0127285
0.0127285
0.0127285
0.0127285
0.0127285
0.0127285
0.0127285
0.0127285
0.0127285
0.0127285
0.0127285
0.0127285
0.0127285
0.0127285
0.0127285
0.012728
0.0126757
0.0415189
0.0366156
0.0340618
0.0328153
0.0322395
0.0319848
0.0318745
0.0318265
0.031803
0.0317888
0.0317757
0.0317597
0.0317377
0.0317098
0.0316758
0.0316443
0.0316211
0.0316078
0.0316058
0.0316182
0.0316413
0.0316736
0.0317073
0.0317378
0.0317623
0.0317807
0.0317937
0.0318026
0.0318089
0.0318127
0.0318148
0.0318163
0.0318167
0.0318171
0.0318173
0.0318173
0.0318174
0.0318172
0.0318173
0.0318171
0.031817
0.031817
0.031817
0.031817
0.031817
0.031817
0.031817
0.031817
0.031817
0.031817
0.031817
0.031817
0.031817
0.031817
0.031817
0.031817
0.031817
0.031817
0.0318158
0.0317225
0.0463605
0.0439186
0.0424942
0.0417294
0.0413436
0.0411583
0.0410718
0.0410313
0.0410116
0.0410005
0.0409917
0.0409815
0.0409673
0.0409546
0.040937
0.0409195
0.0409076
0.0409008
0.0408999
0.040911
0.0409277
0.0409446
0.0409621
0.0409782
0.0409914
0.0410013
0.0410081
0.0410125
0.0410153
0.041017
0.0410177
0.0410181
0.0410182
0.041018
0.0410179
0.0410179
0.0410177
0.0410176
0.0410175
0.0410175
0.0410174
0.0410174
0.0410173
0.0410173
0.0410173
0.0410173
0.0410173
0.0410173
0.0410173
0.0410173
0.0410173
0.0410173
0.0410173
0.0410173
0.0410173
0.0410173
0.0410173
0.0410173
0.0410164
0.0409477
0.0480891
0.046763
0.0459643
0.045522
0.0452919
0.0451776
0.0451225
0.0450964
0.0450838
0.0450777
0.0450752
0.0450731
0.0450722
0.0452338
0.0453383
0.0453849
0.0454099
0.0454177
0.0454205
0.045429
0.0454374
0.045297
0.0451993
0.0451419
0.0451121
0.045098
0.0450918
0.045089
0.0450878
0.0450871
0.0450866
0.0450862
0.0450859
0.0450855
0.0450853
0.0450851
0.045085
0.0450849
0.0450847
0.0450847
0.0450846
0.0450846
0.0450846
0.0450846
0.0450846
0.0450846
0.0450846
0.0450846
0.0450846
0.0450846
0.0450846
0.0450846
0.0450846
0.0450846
0.0450846
0.0450846
0.0450846
0.0450846
0.045084
0.0450408
0.0488375
0.0480267
0.0475361
0.047263
0.0471199
0.0470482
0.0470135
0.046997
0.0469895
0.0469877
0.0469907
0.0470031
0.047145
0.0478823
0.0486348
0.0487266
0.0487456
0.0487828
0.0487552
0.0487553
0.0487634
0.0482151
0.0476415
0.0473174
0.047148
0.0470642
0.0470244
0.0470061
0.0469976
0.0469936
0.0469915
0.0469905
0.0469898
0.0469894
0.0469891
0.0469889
0.0469888
0.0469887
0.0469886
0.0469886
0.0469885
0.0469885
0.0469884
0.0469884
0.0469884
0.0469884
0.0469884
0.0469884
0.0469884
0.0469884
0.0469884
0.0469884
0.0469884
0.0469884
0.0469884
0.0469884
0.0469884
0.0469884
0.0469881
0.0469604
0.0492202
0.0486765
0.0483477
0.0481648
0.0480692
0.0480212
0.047998
0.0479871
0.0479824
0.047982
0.0479863
0.048014
0.0485902
0.0493661
0.0497635
0.0496065
0.0495072
0.0496963
0.0496062
0.0495195
0.0496102
0.0489991
0.0485516
0.0482827
0.0481342
0.048057
0.0480184
0.0479998
0.0479907
0.0479864
0.0479841
0.047983
0.0479823
0.0479819
0.0479816
0.0479814
0.0479813
0.0479812
0.0479811
0.0479811
0.0479811
0.0479811
0.047981
0.047981
0.047981
0.047981
0.047981
0.047981
0.047981
0.047981
0.047981
0.047981
0.047981
0.047981
0.047981
0.047981
0.047981
0.047981
0.0479808
0.0479619
0.0494412
0.0490517
0.0488166
0.048686
0.0486177
0.0485837
0.0485672
0.0485594
0.0485561
0.0485555
0.0485575
0.0485751
0.0491129
0.0497954
0.0499681
0.0499652
0.049953
0.0499566
0.0499622
0.0499531
0.049898
0.0493127
0.0489853
0.0487859
0.0486743
0.0486153
0.0485854
0.0485705
0.0485632
0.0485596
0.0485577
0.0485567
0.0485561
0.0485558
0.0485556
0.0485554
0.0485553
0.0485552
0.0485552
0.0485552
0.0485551
0.0485551
0.0485551
0.0485551
0.0485551
0.0485551
0.0485551
0.0485551
0.0485551
0.0485551
0.0485551
0.0485551
0.0485551
0.0485551
0.0485551
0.0485551
0.0485551
0.0485551
0.0485549
0.0485413
0.04958
0.0492875
0.0491111
0.0490133
0.0489622
0.0489368
0.0489245
0.0489187
0.0489161
0.0489153
0.0489158
0.0489266
0.0493306
0.0498464
0.0499578
0.049948
0.0499136
0.0499403
0.049947
0.0499126
0.0499101
0.0494854
0.0492416
0.0490917
0.0490072
0.0489622
0.0489392
0.0489276
0.0489219
0.048919
0.0489176
0.0489168
0.0489163
0.048916
0.0489159
0.0489157
0.0489156
0.0489156
0.0489156
0.0489155
0.0489155
0.0489155
0.0489155
0.0489155
0.0489155
0.0489155
0.0489155
0.0489155
0.0489155
0.0489155
0.0489155
0.0489155
0.0489155
0.0489155
0.0489155
0.0489155
0.0489155
0.0489155
0.0489154
0.0489051
0.0496729
0.0494453
0.0493081
0.0492321
0.0491925
0.0491728
0.0491633
0.0491588
0.0491567
0.0491559
0.0491562
0.0491637
0.0494208
0.0498357
0.0499536
0.0499423
0.0499336
0.0499376
0.0499415
0.0499328
0.0499306
0.0496002
0.0494113
0.0492947
0.0492286
0.0491932
0.0491751
0.0491659
0.0491614
0.0491591
0.0491579
0.0491573
0.0491569
0.0491567
0.0491566
0.0491564
0.0491564
0.0491563
0.0491563
0.0491563
0.0491563
0.0491563
0.0491563
0.0491563
0.0491563
0.0491563
0.0491563
0.0491563
0.0491563
0.0491563
0.0491563
0.0491563
0.0491563
0.0491563
0.0491563
0.0491563
0.0491563
0.0491563
0.0491562
0.0491482
0.0497381
0.0495559
0.0494462
0.0493855
0.0493539
0.0493382
0.0493306
0.0493271
0.0493255
0.0493248
0.0493251
0.0493314
0.0495299
0.0498574
0.0499597
0.049948
0.0499471
0.0499473
0.0499473
0.0499465
0.0499445
0.0496805
0.0495294
0.0494362
0.0493832
0.0493548
0.0493401
0.0493327
0.0493291
0.0493272
0.0493263
0.0493258
0.0493255
0.0493253
0.0493252
0.0493251
0.0493251
0.0493251
0.049325
0.049325
0.049325
0.049325
0.049325
0.049325
0.049325
0.049325
0.049325
0.049325
0.049325
0.049325
0.049325
0.049325
0.049325
0.049325
0.049325
0.049325
0.049325
0.049325
0.0493249
0.0493185
0.0497856
0.0496365
0.0495468
0.0494972
0.0494714
0.0494586
0.0494525
0.0494496
0.0494484
0.0494479
0.0494482
0.0494542
0.0496581
0.0499167
0.0499734
0.0499666
0.0499572
0.0499618
0.0499663
0.0499566
0.049955
0.0497379
0.0496141
0.0495381
0.049495
0.0494719
0.04946
0.049454
0.049451
0.0494495
0.0494488
0.0494484
0.0494482
0.049448
0.049448
0.0494479
0.0494479
0.0494478
0.0494478
0.0494478
0.0494478
0.0494478
0.0494478
0.0494478
0.0494478
0.0494478
0.0494478
0.0494478
0.0494478
0.0494478
0.0494478
0.0494478
0.0494478
0.0494478
0.0494478
0.0494478
0.0494478
0.0494478
0.0494477
0.0494425
0.0498213
0.0496971
0.0496223
0.049581
0.0495596
0.049549
0.0495439
0.0495415
0.0495406
0.0495403
0.0495407
0.0495462
0.0497224
0.0499394
0.0499952
0.0499788
0.0499649
0.0499803
0.0499781
0.049964
0.0499692
0.0497787
0.049676
0.0496134
0.0495781
0.0495593
0.0495497
0.0495448
0.0495424
0.0495413
0.0495407
0.0495404
0.0495402
0.0495401
0.04954
0.04954
0.04954
0.04954
0.0495399
0.0495399
0.0495399
0.0495399
0.0495399
0.0495399
0.0495399
0.0495399
0.0495399
0.0495399
0.0495399
0.0495399
0.0495399
0.0495399
0.0495399
0.0495399
0.0495399
0.0495399
0.0495399
0.0495399
0.0495399
0.0495355
0.0498488
0.0497436
0.0496804
0.0496455
0.0496274
0.0496185
0.0496142
0.0496122
0.0496114
0.0496111
0.0496112
0.0496144
0.0497365
0.0499235
0.0499916
0.0499764
0.0499707
0.0499734
0.0499763
0.0499711
0.0499818
0.0498114
0.0497247
0.049672
0.0496424
0.0496267
0.0496187
0.0496147
0.0496128
0.0496118
0.0496114
0.0496111
0.049611
0.0496109
0.0496109
0.0496109
0.0496108
0.0496108
0.0496108
0.0496108
0.0496108
0.0496108
0.0496108
0.0496108
0.0496108
0.0496108
0.0496108
0.0496108
0.0496108
0.0496108
0.0496108
0.0496108
0.0496108
0.0496108
0.0496108
0.0496108
0.0496108
0.0496108
0.0496107
0.049607
0.0498703
0.0497802
0.0497261
0.0496962
0.0496807
0.0496731
0.0496694
0.0496677
0.049667
0.0496666
0.0496665
0.0496666
0.0496922
0.0498094
0.049916
0.0499166
0.0499023
0.0499127
0.0499159
0.0499125
0.0499197
0.0498186
0.0497533
0.0497133
0.0496907
0.0496787
0.0496725
0.0496695
0.049668
0.0496673
0.0496669
0.0496667
0.0496666
0.0496666
0.0496665
0.0496665
0.0496665
0.0496665
0.0496665
0.0496665
0.0496665
0.0496665
0.0496665
0.0496665
0.0496665
0.0496665
0.0496665
0.0496665
0.0496665
0.0496665
0.0496665
0.0496665
0.0496665
0.0496665
0.0496665
0.0496665
0.0496665
0.0496665
0.0496664
0.0496633
0.0498876
0.0498095
0.0497626
0.0497368
0.0497234
0.0497167
0.0497136
0.0497121
0.0497114
0.0497111
0.0497109
0.0497107
0.0497126
0.0497322
0.0497477
0.0497552
0.0497569
0.0497583
0.0497592
0.0497599
0.0497597
0.0497468
0.0497346
0.0497253
0.0497192
0.0497156
0.0497135
0.0497124
0.0497117
0.0497114
0.0497113
0.0497112
0.0497111
0.0497111
0.0497111
0.049711
0.049711
0.049711
0.049711
0.049711
0.049711
0.049711
0.049711
0.049711
0.049711
0.049711
0.049711
0.049711
0.049711
0.049711
0.049711
0.049711
0.049711
0.049711
0.049711
0.049711
0.049711
0.049711
0.049711
0.0497082
0.0499016
0.0498333
0.0497923
0.0497696
0.0497579
0.0497521
0.0497493
0.049748
0.0497474
0.0497471
0.0497469
0.0497467
0.0497469
0.0497484
0.0497512
0.0497532
0.0497541
0.0497545
0.0497548
0.0497543
0.0497539
0.0497528
0.0497514
0.0497501
0.049749
0.0497483
0.0497478
0.0497476
0.0497474
0.0497473
0.0497472
0.0497472
0.0497471
0.0497471
0.0497471
0.0497471
0.0497471
0.0497471
0.0497471
0.0497471
0.0497471
0.0497471
0.0497471
0.0497471
0.0497471
0.0497471
0.0497471
0.0497471
0.0497471
0.0497471
0.0497471
0.0497471
0.0497471
0.0497471
0.0497471
0.0497471
0.0497471
0.0497471
0.049747
0.0497446
0.0499129
0.0498521
0.0498153
0.0497949
0.0497843
0.049779
0.0497764
0.0497752
0.0497747
0.0497744
0.0497742
0.0497741
0.0497741
0.0497743
0.0497752
0.0497759
0.0497762
0.0497764
0.0497765
0.049776
0.0497755
0.0497752
0.049775
0.0497749
0.0497747
0.0497746
0.0497746
0.0497745
0.0497745
0.0497744
0.0497744
0.0497744
0.0497744
0.0497744
0.0497743
0.0497743
0.0497743
0.0497743
0.0497743
0.0497743
0.0497743
0.0497743
0.0497743
0.0497743
0.0497743
0.0497743
0.0497743
0.0497743
0.0497743
0.0497743
0.0497743
0.0497743
0.0497743
0.0497743
0.0497743
0.0497743
0.0497743
0.0497743
0.0497743
0.0497721
0.0499191
0.0498594
0.049821
0.0497984
0.0497858
0.0497791
0.0497757
0.049774
0.0497732
0.0497728
0.0497726
0.0497725
0.0497726
0.0497727
0.0497733
0.0497737
0.049774
0.0497742
0.0497743
0.0497738
0.0497733
0.049773
0.0497728
0.0497727
0.0497727
0.0497727
0.0497727
0.0497726
0.0497726
0.0497726
0.0497726
0.0497726
0.0497726
0.0497726
0.0497726
0.0497726
0.0497726
0.0497726
0.0497726
0.0497726
0.0497726
0.0497725
0.0497725
0.0497725
0.0497725
0.0497725
0.0497725
0.0497725
0.0497725
0.0497725
0.0497725
0.0497725
0.0497725
0.0497725
0.0497725
0.0497725
0.0497725
0.0497725
0.0497725
0.0497703
0.0252112
0.0170428
0.0141958
0.0132204
0.0128985
0.0127953
0.012762
0.0127499
0.0127445
0.0127402
0.0127352
0.0127283
0.0127182
0.0127044
0.0126864
0.0126665
0.0126487
0.0126367
0.0126337
0.0126402
0.0126537
0.0126726
0.0126919
0.0127092
0.0127233
0.0127334
0.0127409
0.0127459
0.0127493
0.0127517
0.0127531
0.0127539
0.0127543
0.0127548
0.0127548
0.0127548
0.012755
0.0127548
0.0127548
0.0127547
0.0127549
0.0127548
0.0127548
0.0127548
0.0127548
0.0127548
0.0127548
0.0127548
0.0127548
0.0127548
0.0127548
0.0127548
0.0127548
0.0127548
0.0127548
0.0127548
0.0127548
0.0127548
0.0127543
0.012702
0.0415301
0.0366465
0.0341148
0.0328865
0.0323233
0.0320766
0.031971
0.0319255
0.031904
0.0318912
0.0318801
0.0318661
0.0318465
0.0318203
0.0317883
0.0317582
0.0317355
0.0317218
0.0317185
0.0317271
0.0317467
0.0317764
0.0318089
0.0318383
0.0318623
0.0318802
0.0318931
0.0319022
0.0319082
0.0319122
0.0319145
0.0319159
0.0319164
0.0319168
0.031917
0.0319169
0.0319171
0.0319169
0.031917
0.0319169
0.0319168
0.0319168
0.0319168
0.0319168
0.0319168
0.0319168
0.0319168
0.0319168
0.0319168
0.0319168
0.0319168
0.0319168
0.0319168
0.0319168
0.0319168
0.0319168
0.0319168
0.0319168
0.0319156
0.0318229
0.0463691
0.0439437
0.0425379
0.0417891
0.0414153
0.0412375
0.0411556
0.0411179
0.0410999
0.0410902
0.0410831
0.0410747
0.0410616
0.0410492
0.0410327
0.0410157
0.0410038
0.0409964
0.040994
0.0409998
0.0410124
0.041028
0.0410461
0.0410628
0.0410768
0.0410875
0.041095
0.0411
0.041103
0.041105
0.0411058
0.0411063
0.0411064
0.0411063
0.0411062
0.0411062
0.0411061
0.041106
0.041106
0.0411059
0.0411058
0.0411058
0.0411057
0.0411057
0.0411057
0.0411057
0.0411057
0.0411057
0.0411057
0.0411057
0.0411057
0.0411057
0.0411057
0.0411057
0.0411057
0.0411057
0.0411057
0.0411057
0.0411049
0.041037
0.0480945
0.046779
0.0459927
0.0455614
0.0453395
0.0452306
0.0451789
0.0451547
0.0451435
0.0451398
0.0451407
0.0451423
0.0451417
0.0452929
0.0453995
0.0454395
0.0454602
0.0454667
0.0454668
0.0454689
0.0454746
0.0453377
0.045245
0.0451918
0.0451655
0.0451539
0.0451493
0.0451476
0.045147
0.0451466
0.0451463
0.045146
0.0451457
0.0451455
0.0451452
0.0451451
0.0451449
0.0451448
0.0451448
0.0451447
0.0451446
0.0451446
0.0451446
0.0451446
0.0451446
0.0451446
0.0451446
0.0451446
0.0451446
0.0451446
0.0451446
0.0451446
0.0451446
0.0451446
0.0451446
0.0451446
0.0451446
0.0451446
0.0451441
0.0451016
0.0488409
0.0480371
0.0475545
0.0472886
0.0471509
0.0470829
0.0470503
0.0470351
0.0470289
0.0470286
0.0470345
0.0470544
0.0471944
0.0479143
0.0486788
0.0487274
0.0487353
0.0487514
0.0487431
0.0487444
0.0487565
0.048226
0.0476581
0.0473402
0.0471765
0.047097
0.0470601
0.0470434
0.0470359
0.0470324
0.0470306
0.0470297
0.0470291
0.0470288
0.0470285
0.0470283
0.0470282
0.0470281
0.047028
0.047028
0.0470279
0.0470279
0.0470279
0.0470279
0.0470279
0.0470279
0.0470279
0.0470279
0.0470279
0.0470279
0.0470279
0.0470279
0.0470279
0.0470279
0.0470279
0.0470279
0.0470279
0.0470279
0.0470275
0.0470004
0.0492226
0.0486835
0.0483603
0.0481823
0.0480903
0.0480449
0.0480231
0.048013
0.0480091
0.0480097
0.0480164
0.0480526
0.0486282
0.0493703
0.0497704
0.0496048
0.0495027
0.04968
0.0496032
0.0495179
0.0497709
0.0490048
0.0485581
0.0482939
0.0481506
0.0480774
0.0480417
0.0480247
0.0480166
0.0480128
0.0480108
0.0480098
0.0480092
0.0480088
0.0480086
0.0480084
0.0480083
0.0480082
0.0480081
0.0480081
0.0480081
0.048008
0.048008
0.048008
0.048008
0.048008
0.048008
0.048008
0.048008
0.048008
0.048008
0.048008
0.048008
0.048008
0.048008
0.048008
0.048008
0.048008
0.0480078
0.0479893
0.0494429
0.0490568
0.0488256
0.0486986
0.048633
0.0486007
0.0485852
0.048578
0.0485749
0.0485745
0.0485769
0.048596
0.0491306
0.0498257
0.0499294
0.0499029
0.0498763
0.0498889
0.049903
0.0498767
0.0499815
0.0493023
0.0489815
0.0487892
0.0486835
0.0486288
0.0486015
0.0485882
0.0485817
0.0485785
0.0485769
0.048576
0.0485755
0.0485751
0.048575
0.0485748
0.0485747
0.0485746
0.0485746
0.0485746
0.0485745
0.0485745
0.0485745
0.0485745
0.0485745
0.0485745
0.0485745
0.0485745
0.0485745
0.0485745
0.0485745
0.0485745
0.0485745
0.0485745
0.0485745
0.0485745
0.0485745
0.0485745
0.0485743
0.048561
0.0495813
0.0492914
0.049118
0.0490228
0.0489737
0.0489496
0.048938
0.0489326
0.04893
0.0489288
0.0489282
0.0489354
0.0493383
0.0498574
0.0497795
0.0497368
0.0497392
0.0497445
0.0497372
0.0497489
0.0499101
0.0494811
0.0492399
0.0490943
0.049014
0.0489722
0.0489512
0.0489409
0.0489358
0.0489333
0.048932
0.0489313
0.0489308
0.0489306
0.0489304
0.0489303
0.0489302
0.0489302
0.0489302
0.0489301
0.0489301
0.0489301
0.0489301
0.0489301
0.0489301
0.0489301
0.0489301
0.0489301
0.0489301
0.0489301
0.0489301
0.0489301
0.0489301
0.0489301
0.0489301
0.0489301
0.0489301
0.0489301
0.04893
0.0489199
0.0496739
0.0494483
0.0493134
0.0492395
0.0492014
0.0491827
0.0491738
0.0491695
0.0491674
0.0491661
0.049165
0.0491694
0.0494808
0.0498759
0.0498336
0.0497969
0.0497959
0.0497937
0.0497899
0.0498049
0.0499307
0.0495977
0.0494103
0.0492969
0.049234
0.0492011
0.0491845
0.0491763
0.0491722
0.0491702
0.0491691
0.0491686
0.0491682
0.049168
0.0491679
0.0491678
0.0491678
0.0491677
0.0491677
0.0491677
0.0491677
0.0491677
0.0491676
0.0491676
0.0491676
0.0491676
0.0491676
0.0491676
0.0491676
0.0491676
0.0491676
0.0491676
0.0491676
0.0491676
0.0491676
0.0491676
0.0491676
0.0491676
0.0491675
0.0491597
0.0497389
0.0495583
0.0494505
0.0493914
0.0493611
0.0493462
0.0493391
0.0493357
0.049334
0.0493329
0.0493322
0.0493364
0.0495854
0.0498996
0.0498702
0.0498414
0.0498384
0.0498367
0.0498344
0.0498448
0.0499449
0.0496784
0.0495285
0.0494378
0.0493874
0.049361
0.0493476
0.049341
0.0493378
0.0493361
0.0493353
0.0493348
0.0493346
0.0493344
0.0493343
0.0493342
0.0493342
0.0493342
0.0493341
0.0493341
0.0493341
0.0493341
0.0493341
0.0493341
0.0493341
0.0493341
0.0493341
0.0493341
0.0493341
0.0493341
0.0493341
0.0493341
0.0493341
0.0493341
0.0493341
0.0493341
0.0493341
0.0493341
0.049334
0.0493278
0.0497863
0.0496385
0.0495503
0.049502
0.0494773
0.0494651
0.0494594
0.0494567
0.0494554
0.0494548
0.0494544
0.0494584
0.0496654
0.0499188
0.0498897
0.0498668
0.0498698
0.0498672
0.0498645
0.0498749
0.0499553
0.0497356
0.049613
0.0495392
0.0494984
0.0494769
0.0494661
0.0494608
0.0494581
0.0494568
0.0494562
0.0494558
0.0494556
0.0494555
0.0494554
0.0494553
0.0494553
0.0494553
0.0494553
0.0494553
0.0494553
0.0494552
0.0494552
0.0494552
0.0494552
0.0494552
0.0494552
0.0494552
0.0494552
0.0494552
0.0494552
0.0494552
0.0494552
0.0494552
0.0494552
0.0494552
0.0494552
0.0494552
0.0494552
0.0494501
0.0498218
0.0496987
0.0496252
0.0495851
0.0495645
0.0495544
0.0495496
0.0495474
0.0495465
0.0495461
0.0495464
0.0495516
0.0497253
0.0499381
0.0499519
0.0499166
0.0499046
0.0499335
0.0499161
0.0499059
0.0499821
0.0497759
0.0496749
0.0496144
0.049581
0.0495636
0.0495548
0.0495505
0.0495484
0.0495473
0.0495468
0.0495465
0.0495464
0.0495463
0.0495462
0.0495462
0.0495462
0.0495462
0.0495461
0.0495461
0.0495461
0.0495461
0.0495461
0.0495461
0.0495461
0.0495461
0.0495461
0.0495461
0.0495461
0.0495461
0.0495461
0.0495461
0.0495461
0.0495461
0.0495461
0.0495461
0.0495461
0.0495461
0.0495461
0.0495418
0.0498492
0.049745
0.0496829
0.049649
0.0496315
0.0496231
0.0496191
0.0496172
0.0496164
0.0496161
0.0496159
0.0496187
0.0497655
0.0499447
0.0499953
0.0499755
0.0499682
0.049972
0.0499753
0.0499685
0.0499934
0.0498118
0.0497259
0.0496742
0.0496456
0.0496307
0.0496232
0.0496196
0.0496178
0.049617
0.0496166
0.0496163
0.0496162
0.0496162
0.0496161
0.0496161
0.0496161
0.0496161
0.049616
0.049616
0.049616
0.049616
0.049616
0.049616
0.049616
0.049616
0.049616
0.049616
0.049616
0.049616
0.049616
0.049616
0.049616
0.049616
0.049616
0.049616
0.049616
0.049616
0.049616
0.0496124
0.0498707
0.0497814
0.0497282
0.0496991
0.0496843
0.049677
0.0496736
0.049672
0.0496713
0.0496709
0.0496706
0.0496703
0.0496972
0.0498116
0.0499137
0.0499148
0.0499091
0.0499144
0.0499135
0.0499093
0.0499192
0.0498195
0.049755
0.0497157
0.0496938
0.0496823
0.0496765
0.0496737
0.0496723
0.0496717
0.0496714
0.0496712