/*--------------------------------*- C++ -*----------------------------------*\
  =========                 |
  \\      /  F ield         | OpenFOAM: The Open Source CFD Toolbox
   \\    /   O peration     | Website:  https://openfoam.org
    \\  /    A nd           | Version:  13
     \\/     M anipulation  |
\*---------------------------------------------------------------------------*/
FoamFile
{
    format      ascii;
    class       volScalarField;
    location    "4";
    object      p;
}
// * * * * * * * * * * * * * * * * * * * * * * * * * * * * * * * * * * * * * //

dimensions      [0 2 -2 0 0 0 0];

internalField   nonuniform List<scalar> 
54636
(
-6.37304e-13
-6.59326e-13
-6.5885e-13
-6.44009e-13
-6.1697e-13
-6.58258e-13
-6.50376e-13
-6.20547e-13
-6.54045e-13
-6.32392e-13
-5.84736e-13
-5.64238e-13
-5.42366e-13
-5.44889e-13
-5.41694e-13
-5.29671e-13
-5.54139e-13
-5.05192e-13
-5.06551e-13
-5.35228e-13
-5.51715e-13
-5.40225e-13
-5.52703e-13
-5.19416e-13
-5.01653e-13
-5.31376e-13
-5.47426e-13
-5.40309e-13
-5.74849e-13
-5.85571e-13
-5.6437e-13
-5.60708e-13
-5.46292e-13
-5.96692e-13
-5.81546e-13
-6.14347e-13
-6.08375e-13
-5.84129e-13
-5.92884e-13
-5.55449e-13
-5.22658e-13
-5.32777e-13
-5.18844e-13
-5.15042e-13
-4.83297e-13
-4.6855e-13
-4.5104e-13
-4.23967e-13
-4.08749e-13
-3.83434e-13
-3.55894e-13
-3.20157e-13
-2.98686e-13
-2.34792e-13
-1.97575e-13
-1.9465e-13
-1.6084e-13
-1.31456e-13
-7.2497e-14
-4.80605e-15
-6.32715e-13
-6.56291e-13
-6.5315e-13
-6.48631e-13
-6.16045e-13
-6.50383e-13
-6.57925e-13
-6.24891e-13
-6.62246e-13
-6.1447e-13
-5.84454e-13
-5.6184e-13
-5.63194e-13
-5.31924e-13
-5.31537e-13
-5.31693e-13
-5.40986e-13
-5.05606e-13
-5.08756e-13
-5.33364e-13
-5.49318e-13
-5.47082e-13
-5.45227e-13
-5.34443e-13
-5.0039e-13
-5.37601e-13
-5.53142e-13
-5.33368e-13
-5.63962e-13
-5.93746e-13
-5.59287e-13
-5.48942e-13
-5.46498e-13
-5.90581e-13
-5.93831e-13
-6.11649e-13
-6.22927e-13
-5.65267e-13
-5.94817e-13
-5.54586e-13
-5.24287e-13
-5.35197e-13
-5.32114e-13
-5.11558e-13
-4.75155e-13
-4.731e-13
-4.53392e-13
-4.27683e-13
-4.16527e-13
-3.80367e-13
-3.54151e-13
-3.11068e-13
-2.90551e-13
-2.4464e-13
-2.10117e-13
-1.96998e-13
-1.50482e-13
-1.18077e-13
-7.47009e-14
-1.58669e-14
-6.18138e-13
-6.5057e-13
-6.62085e-13
-6.43586e-13
-6.11022e-13
-6.49581e-13
-6.48836e-13
-6.26889e-13
-6.67943e-13
-6.10709e-13
-5.6996e-13
-5.6941e-13
-5.7135e-13
-5.30149e-13
-5.27802e-13
-5.24058e-13
-5.37481e-13
-5.00584e-13
-5.02243e-13
-5.25839e-13
-5.78145e-13
-5.49046e-13
-5.33187e-13
-5.43752e-13
-5.10595e-13
-5.296e-13
-5.473e-13
-5.40608e-13
-5.53583e-13
-5.93658e-13
-5.60096e-13
-5.42116e-13
-5.66522e-13
-5.9172e-13
-6.05392e-13
-6.16557e-13
-6.20252e-13
-5.47419e-13
-5.86167e-13
-5.56083e-13
-5.23561e-13
-5.26096e-13
-5.42591e-13
-5.14322e-13
-4.67776e-13
-4.69096e-13
-4.5619e-13
-4.39388e-13
-4.23518e-13
-3.90694e-13
-3.44949e-13
-3.14738e-13
-2.85728e-13
-2.51866e-13
-2.09758e-13
-1.89705e-13
-1.5338e-13
-1.14331e-13
-7.4259e-14
-1.67177e-14
-6.21383e-13
-6.46811e-13
-6.7154e-13
-6.39745e-13
-6.17072e-13
-6.48681e-13
-6.36174e-13
-6.52167e-13
-6.58534e-13
-5.89525e-13
-5.69668e-13
-5.69934e-13
-5.86115e-13
-5.19112e-13
-5.25166e-13
-5.13045e-13
-5.31937e-13
-5.16317e-13
-5.06857e-13
-5.19701e-13
-5.78447e-13
-5.48158e-13
-5.36138e-13
-5.40835e-13
-5.26338e-13
-5.3315e-13
-5.37834e-13
-5.33052e-13
-5.41067e-13
-6.05419e-13
-5.4253e-13
-5.57347e-13
-5.85435e-13
-5.87432e-13
-6.06019e-13
-6.18379e-13
-6.1225e-13
-5.52023e-13
-5.83827e-13
-5.59056e-13
-5.10636e-13
-5.19625e-13
-5.4093e-13
-5.26242e-13
-4.70151e-13
-4.7214e-13
-4.58596e-13
-4.44166e-13
-4.29949e-13
-3.99922e-13
-3.5497e-13
-3.00536e-13
-2.75506e-13
-2.56579e-13
-2.06584e-13
-1.85052e-13
-1.55193e-13
-1.14406e-13
-6.90752e-14
-8.48353e-15
-5.91723e-13
-6.5706e-13
-6.74642e-13
-6.52881e-13
-6.26597e-13
-6.45648e-13
-6.3165e-13
-6.41337e-13
-6.66977e-13
-5.97543e-13
-5.66136e-13
-5.69252e-13
-5.84981e-13
-5.41159e-13
-5.06352e-13
-5.04688e-13
-5.42202e-13
-5.18683e-13
-4.98608e-13
-5.10368e-13
-5.5739e-13
-5.35558e-13
-5.36487e-13
-5.46015e-13
-5.23865e-13
-5.43076e-13
-5.33877e-13
-5.21378e-13
-5.45834e-13
-5.90204e-13
-5.61598e-13
-5.53264e-13
-5.87458e-13
-5.93907e-13
-6.10524e-13
-6.27616e-13
-6.09562e-13
-5.41396e-13
-5.74792e-13
-5.42992e-13
-5.22742e-13
-5.1061e-13
-5.35337e-13
-5.28552e-13
-4.86391e-13
-4.84461e-13
-4.62782e-13
-4.53363e-13
-4.282e-13
-3.92207e-13
-3.62202e-13
-3.04511e-13
-2.71328e-13
-2.47056e-13
-2.06211e-13
-1.82998e-13
-1.53582e-13
-1.1576e-13
-5.7866e-14
-7.20611e-15
-5.92306e-13
-6.54259e-13
-6.6685e-13
-6.53664e-13
-6.22885e-13
-6.57508e-13
-6.56745e-13
-6.30944e-13
-6.51819e-13
-5.89443e-13
-5.70693e-13
-5.57795e-13
-5.85683e-13
-5.53014e-13
-5.00983e-13
-4.94488e-13
-5.10678e-13
-5.33874e-13
-4.63125e-13
-5.38433e-13
-5.15474e-13
-5.21361e-13
-5.32595e-13
-5.58604e-13
-5.50326e-13
-5.24362e-13
-5.4131e-13
-5.00853e-13
-5.43792e-13
-5.86967e-13
-5.67018e-13
-5.52891e-13
-5.99346e-13
-6.12805e-13
-6.02675e-13
-6.18713e-13
-5.82142e-13
-5.60089e-13
-5.91624e-13
-5.43243e-13
-5.25127e-13
-5.03332e-13
-5.29123e-13
-5.39795e-13
-4.95681e-13
-4.97493e-13
-4.54766e-13
-4.46934e-13
-4.28275e-13
-3.88081e-13
-3.59827e-13
-3.22126e-13
-2.7272e-13
-2.4654e-13
-2.09102e-13
-1.74338e-13
-1.37441e-13
-1.10774e-13
-6.39462e-14
-1.77127e-14
-5.91604e-13
-6.53168e-13
-6.61634e-13
-6.66463e-13
-6.27055e-13
-6.35767e-13
-6.65825e-13
-6.41421e-13
-6.44984e-13
-5.91938e-13
-5.66368e-13
-5.6411e-13
-5.74822e-13
-5.74514e-13
-4.69575e-13
-5.17487e-13
-4.9403e-13
-5.28831e-13
-4.81796e-13
-5.47156e-13
-5.21871e-13
-5.42207e-13
-5.3932e-13
-5.33671e-13
-5.36169e-13
-5.28339e-13
-5.363e-13
-5.16691e-13
-5.43823e-13
-5.87256e-13
-5.57773e-13
-5.71923e-13
-6.01706e-13
-6.20961e-13
-6.08049e-13
-6.04896e-13
-5.93858e-13
-5.67344e-13
-5.71332e-13
-5.33822e-13
-5.23061e-13
-5.08478e-13
-5.30775e-13
-5.42518e-13
-5.04162e-13
-5.00106e-13
-4.57943e-13
-4.46207e-13
-4.52747e-13
-3.81207e-13
-3.50794e-13
-3.23545e-13
-2.70516e-13
-2.35373e-13
-1.9977e-13
-1.65511e-13
-1.309e-13
-1.10998e-13
-7.15517e-14
-1.0153e-14
-6.15539e-13
-6.29333e-13
-6.55237e-13
-6.66056e-13
-6.4391e-13
-6.5493e-13
-6.39664e-13
-6.29114e-13
-6.27999e-13
-5.9123e-13
-5.77848e-13
-5.63842e-13
-6.0709e-13
-5.8602e-13
-5.37436e-13
-5.20108e-13
-5.11169e-13
-4.72832e-13
-5.04786e-13
-4.63199e-13
-5.55928e-13
-5.37597e-13
-5.41722e-13
-5.2041e-13
-5.31559e-13
-5.26099e-13
-5.60711e-13
-5.36751e-13
-5.27363e-13
-5.87589e-13
-5.65026e-13
-5.70224e-13
-6.05531e-13
-6.17389e-13
-6.12748e-13
-5.99398e-13
-5.85606e-13
-5.73181e-13
-5.60589e-13
-5.4566e-13
-5.29623e-13
-5.04663e-13
-5.375e-13
-5.41435e-13
-4.99994e-13
-5.09659e-13
-4.55165e-13
-4.53151e-13
-4.59826e-13
-3.8851e-13
-3.48464e-13
-3.2342e-13
-2.70071e-13
-2.24557e-13
-1.92309e-13
-1.59278e-13
-1.23818e-13
-1.02502e-13
-6.71267e-14
-8.02296e-15
-6.1974e-13
-6.18731e-13
-6.38547e-13
-6.7085e-13
-6.50574e-13
-6.66663e-13
-6.49104e-13
-6.15879e-13
-6.26491e-13
-5.99425e-13
-5.94972e-13
-5.49846e-13
-5.86963e-13
-6.0779e-13
-5.25531e-13
-5.46579e-13
-4.33782e-13
-4.9484e-13
-5.1524e-13
-4.41525e-13
-5.75356e-13
-5.34069e-13
-5.35967e-13
-5.15362e-13
-5.32774e-13
-5.27192e-13
-5.50553e-13
-5.58097e-13
-5.41008e-13
-5.81639e-13
-5.68774e-13
-5.95095e-13
-6.05921e-13
-5.99216e-13
-6.1036e-13
-6.09683e-13
-5.80902e-13
-5.70574e-13
-5.61763e-13
-5.4991e-13
-5.26995e-13
-5.07636e-13
-5.365e-13
-5.37715e-13
-5.07772e-13
-5.06226e-13
-4.49533e-13
-4.53564e-13
-4.63342e-13
-3.85194e-13
-3.50746e-13
-3.22451e-13
-2.7285e-13
-2.18677e-13
-1.97793e-13
-1.62222e-13
-1.10614e-13
-9.80254e-14
-6.29e-14
-5.05819e-15
-6.04595e-13
-6.26995e-13
-6.42349e-13
-6.70693e-13
-6.61631e-13
-6.54102e-13
-6.48774e-13
-6.14265e-13
-6.21567e-13
-5.98734e-13
-6.01589e-13
-5.66607e-13
-5.57876e-13
-6.04691e-13
-5.82218e-13
-5.53741e-13
-4.50404e-13
-4.95624e-13
-4.68795e-13
-4.98556e-13
-5.90851e-13
-5.47777e-13
-5.31859e-13
-5.22298e-13
-5.26434e-13
-5.34872e-13
-5.25001e-13
-5.6545e-13
-5.5393e-13
-5.88798e-13
-5.67918e-13
-5.81268e-13
-6.27132e-13
-6.13005e-13
-5.83425e-13
-6.03465e-13
-5.72065e-13
-5.83562e-13
-5.46636e-13
-5.58926e-13
-5.3491e-13
-5.05393e-13
-5.21184e-13
-5.38111e-13
-5.25263e-13
-5.01485e-13
-4.5166e-13
-4.61751e-13
-4.49702e-13
-3.83385e-13
-3.46336e-13
-3.13749e-13
-2.72114e-13
-2.36075e-13
-2.01319e-13
-1.47381e-13
-1.08255e-13
-9.64097e-14
-6.01045e-14
-1.62072e-14
-6.09282e-13
-6.23251e-13
-6.53203e-13
-6.70787e-13
-6.81693e-13
-6.34148e-13
-6.44524e-13
-6.17314e-13
-6.19091e-13
-6.0586e-13
-5.86041e-13
-5.86276e-13
-5.6425e-13
-5.668e-13
-6.02494e-13
-5.3068e-13
-4.57839e-13
-5.55345e-13
-4.804e-13
-5.32225e-13
-5.74235e-13
-5.49601e-13
-5.34866e-13
-5.20611e-13
-5.27199e-13
-5.39856e-13
-5.27167e-13
-5.43876e-13
-5.67865e-13
-5.9738e-13
-5.75028e-13
-5.80224e-13
-6.29268e-13
-6.10937e-13
-5.75921e-13
-5.85996e-13
-5.85139e-13
-5.8482e-13
-5.65818e-13
-5.51861e-13
-5.36574e-13
-5.1565e-13
-5.2345e-13
-5.4828e-13
-5.19656e-13
-4.94842e-13
-4.80422e-13
-4.68767e-13
-4.25431e-13
-3.70494e-13
-3.52295e-13
-3.21563e-13
-2.77609e-13
-2.38619e-13
-1.95017e-13
-1.33752e-13
-1.0468e-13
-8.87463e-14
-5.16033e-14
-1.8276e-14
-6.01369e-13
-6.35619e-13
-6.57198e-13
-6.72805e-13
-6.82156e-13
-6.36774e-13
-6.39806e-13
-6.09564e-13
-6.18863e-13
-6.05399e-13
-5.88932e-13
-6.01242e-13
-5.48074e-13
-5.48081e-13
-4.83816e-13
-4.90121e-13
-4.46866e-13
-6.02746e-13
-4.5743e-13
-5.47309e-13
-5.37081e-13
-5.42319e-13
-5.63597e-13
-5.03692e-13
-5.29034e-13
-5.32566e-13
-5.34445e-13
-5.54054e-13
-5.68325e-13
-5.90175e-13
-5.8375e-13
-5.84581e-13
-6.1906e-13
-6.06448e-13
-5.82568e-13
-5.86078e-13
-6.11326e-13
-5.69306e-13
-5.45164e-13
-5.44953e-13
-5.51568e-13
-5.31163e-13
-5.41597e-13
-5.45446e-13
-5.08907e-13
-4.84324e-13
-4.91922e-13
-4.74245e-13
-4.24463e-13
-3.73301e-13
-3.52092e-13
-3.39416e-13
-2.72398e-13
-2.23069e-13
-1.84439e-13
-1.31842e-13
-1.17424e-13
-8.4433e-14
-3.43719e-14
-6.3506e-15
-6.14149e-13
-6.29858e-13
-6.74542e-13
-6.71721e-13
-6.88335e-13
-6.34815e-13
-6.38687e-13
-6.1001e-13
-6.08225e-13
-6.06376e-13
-6.00347e-13
-6.04995e-13
-5.40796e-13
-5.38588e-13
-5.00638e-13
-5.49006e-13
-4.72639e-13
-5.46578e-13
-4.75818e-13
-4.96107e-13
-5.65081e-13
-5.37196e-13
-5.6106e-13
-5.13736e-13
-5.35722e-13
-5.27629e-13
-5.39835e-13
-5.49429e-13
-5.68428e-13
-5.73506e-13
-5.83162e-13
-5.92445e-13
-6.22814e-13
-6.08995e-13
-5.8514e-13
-5.92309e-13
-6.13023e-13
-5.54179e-13
-5.45138e-13
-5.34206e-13
-5.40412e-13
-5.38892e-13
-5.45979e-13
-5.40251e-13
-5.24719e-13
-4.96915e-13
-4.94178e-13
-4.55014e-13
-4.304e-13
-3.84217e-13
-3.56443e-13
-3.35093e-13
-2.54305e-13
-1.99263e-13
-1.90577e-13
-1.403e-13
-1.24465e-13
-8.99086e-14
-2.82028e-14
2.17655e-15
-6.2404e-13
-6.30901e-13
-6.78006e-13
-6.7371e-13
-6.7035e-13
-6.45038e-13
-6.50171e-13
-6.14937e-13
-5.97802e-13
-6.00813e-13
-5.95684e-13
-5.88656e-13
-5.59972e-13
-5.46447e-13
-5.71818e-13
-5.43416e-13
-4.81714e-13
-5.40747e-13
-4.92527e-13
-5.40343e-13
-5.27761e-13
-5.33713e-13
-5.58757e-13
-5.10252e-13
-5.2301e-13
-5.22036e-13
-5.50445e-13
-5.67892e-13
-5.65707e-13
-5.65931e-13
-5.84169e-13
-5.87377e-13
-6.09469e-13
-5.99868e-13
-6.04279e-13
-6.10152e-13
-5.98413e-13
-5.49022e-13
-5.42858e-13
-5.36294e-13
-5.37531e-13
-5.18081e-13
-5.56711e-13
-5.49711e-13
-5.19586e-13
-4.95902e-13
-5.00432e-13
-4.58612e-13
-4.38123e-13
-3.82801e-13
-3.5283e-13
-3.23472e-13
-2.5088e-13
-2.071e-13
-1.8824e-13
-1.39759e-13
-1.25816e-13
-8.29716e-14
-2.56105e-14
-2.91388e-15
-6.3685e-13
-6.36708e-13
-6.83686e-13
-6.80976e-13
-6.61096e-13
-6.41779e-13
-6.56533e-13
-6.12929e-13
-5.86185e-13
-5.96371e-13
-6.01401e-13
-6.12391e-13
-5.36315e-13
-5.38319e-13
-5.61011e-13
-5.19385e-13
-5.01101e-13
-5.34698e-13
-5.14049e-13
-5.3357e-13
-5.09079e-13
-5.41316e-13
-5.51245e-13
-5.31051e-13
-5.27919e-13
-5.13793e-13
-5.35077e-13
-5.80134e-13
-5.67269e-13
-5.65562e-13
-5.55517e-13
-5.92534e-13
-6.13134e-13
-5.95665e-13
-6.04913e-13
-6.32182e-13
-5.97339e-13
-5.41721e-13
-5.19815e-13
-5.34091e-13
-5.3883e-13
-5.3913e-13
-5.74635e-13
-5.56756e-13
-5.15944e-13
-4.97542e-13
-4.97887e-13
-4.59374e-13
-4.42002e-13
-3.82525e-13
-3.50565e-13
-3.12164e-13
-2.44284e-13
-1.98482e-13
-1.85472e-13
-1.55454e-13
-1.28422e-13
-8.18091e-14
-2.84692e-14
-6.04905e-15
-6.49103e-13
-6.54538e-13
-6.78886e-13
-6.83561e-13
-6.54777e-13
-6.5815e-13
-6.59282e-13
-6.16742e-13
-5.69798e-13
-5.89917e-13
-5.84636e-13
-6.12518e-13
-5.34005e-13
-5.6908e-13
-5.49816e-13
-5.19139e-13
-5.00784e-13
-5.35842e-13
-5.20306e-13
-5.4136e-13
-5.05354e-13
-5.52918e-13
-5.36398e-13
-5.24696e-13
-5.32508e-13
-5.14073e-13
-5.37037e-13
-5.80274e-13
-5.74354e-13
-5.66441e-13
-5.55167e-13
-5.97374e-13
-6.14789e-13
-5.76158e-13
-6.16776e-13
-6.43632e-13
-5.95717e-13
-5.3448e-13
-5.22867e-13
-5.31057e-13
-5.39303e-13
-5.3891e-13
-5.67962e-13
-5.55444e-13
-5.26741e-13
-5.12554e-13
-4.93251e-13
-4.59068e-13
-4.31476e-13
-3.8003e-13
-3.4263e-13
-3.11923e-13
-2.61207e-13
-2.09592e-13
-1.75279e-13
-1.47745e-13
-1.27602e-13
-7.18864e-14
-2.67733e-14
-8.24634e-15
-6.52453e-13
-6.52835e-13
-6.71017e-13
-6.94052e-13
-6.64096e-13
-6.42393e-13
-6.57824e-13
-6.13027e-13
-5.77906e-13
-5.65896e-13
-6.06721e-13
-6.1703e-13
-5.35945e-13
-5.73385e-13
-5.54043e-13
-5.21098e-13
-4.94182e-13
-5.258e-13
-5.44478e-13
-5.35932e-13
-5.18341e-13
-5.43198e-13
-5.26732e-13
-5.13537e-13
-5.41302e-13
-5.0691e-13
-5.42432e-13
-5.77063e-13
-5.69255e-13
-5.65678e-13
-5.4745e-13
-6.21627e-13
-6.08868e-13
-5.67787e-13
-6.22793e-13
-6.42467e-13
-5.82871e-13
-5.34992e-13
-5.32986e-13
-5.31776e-13
-5.35302e-13
-5.34336e-13
-5.62261e-13
-5.54628e-13
-5.32597e-13
-5.13614e-13
-4.86744e-13
-4.59939e-13
-4.4365e-13
-3.74632e-13
-3.4284e-13
-3.1656e-13
-2.65639e-13
-2.18105e-13
-1.66135e-13
-1.40313e-13
-1.18446e-13
-7.73548e-14
-2.26225e-14
-4.46121e-16
-6.40014e-13
-6.57304e-13
-6.80443e-13
-7.03638e-13
-6.72234e-13
-6.25632e-13
-6.54079e-13
-6.15943e-13
-5.77166e-13
-5.79838e-13
-5.94981e-13
-6.05872e-13
-5.72087e-13
-5.52466e-13
-5.72377e-13
-5.1768e-13
-4.85574e-13
-5.48385e-13
-5.2089e-13
-5.46854e-13
-5.2321e-13
-5.27433e-13
-5.2952e-13
-5.11133e-13
-5.47871e-13
-5.21982e-13
-5.30319e-13
-5.63013e-13
-5.67178e-13
-5.62797e-13
-5.47741e-13
-6.29932e-13
-6.2228e-13
-5.42213e-13
-6.25421e-13
-6.72657e-13
-5.87406e-13
-5.29407e-13
-5.26683e-13
-5.19234e-13
-5.4195e-13
-5.47983e-13
-5.61897e-13
-5.50713e-13
-5.34199e-13
-5.12784e-13
-4.85481e-13
-4.59738e-13
-4.39677e-13
-3.75956e-13
-3.41937e-13
-3.12849e-13
-2.61743e-13
-2.2611e-13
-1.73791e-13
-1.31585e-13
-1.16155e-13
-8.71851e-14
-2.00158e-14
-3.05534e-15
-6.29296e-13
-6.59251e-13
-6.65762e-13
-6.44758e-13
-6.15168e-13
-6.48081e-13
-6.4412e-13
-6.43501e-13
-6.57551e-13
-6.23656e-13
-5.83972e-13
-5.62055e-13
-5.47596e-13
-5.35313e-13
-5.367e-13
-5.43013e-13
-5.502e-13
-5.08229e-13
-5.10935e-13
-5.28818e-13
-5.59634e-13
-5.37838e-13
-5.51303e-13
-5.22184e-13
-5.15269e-13
-5.29514e-13
-5.40968e-13
-5.33129e-13
-5.76149e-13
-5.86791e-13
-5.62523e-13
-5.59624e-13
-5.43314e-13
-5.98471e-13
-5.90742e-13
-5.97329e-13
-6.06724e-13
-5.93375e-13
-5.86494e-13
-5.55266e-13
-5.20567e-13
-5.41851e-13
-5.27751e-13
-5.15397e-13
-4.72867e-13
-4.69676e-13
-4.58595e-13
-4.25749e-13
-4.08337e-13
-3.82644e-13
-3.45957e-13
-3.23851e-13
-3.03883e-13
-2.40195e-13
-2.02494e-13
-1.89515e-13
-1.54692e-13
-1.28338e-13
-7.85889e-14
-7.40303e-15
-6.35148e-13
-6.50648e-13
-6.57157e-13
-6.43011e-13
-6.19839e-13
-6.46616e-13
-6.448e-13
-6.34553e-13
-6.61943e-13
-6.2196e-13
-5.8705e-13
-5.53832e-13
-5.6212e-13
-5.2494e-13
-5.37706e-13
-5.37118e-13
-5.43583e-13
-5.09526e-13
-5.09721e-13
-5.2899e-13
-5.62269e-13
-5.34408e-13
-5.56181e-13
-5.26654e-13
-5.10402e-13
-5.35313e-13
-5.43659e-13
-5.41906e-13
-5.63297e-13
-5.91281e-13
-5.6088e-13
-5.4844e-13
-5.50539e-13
-5.9663e-13
-5.93947e-13
-6.02401e-13
-6.07465e-13
-5.84978e-13
-5.83115e-13
-5.52958e-13
-5.26066e-13
-5.29492e-13
-5.3575e-13
-5.19635e-13
-4.71532e-13
-4.72646e-13
-4.5621e-13
-4.2655e-13
-4.13073e-13
-3.85864e-13
-3.49842e-13
-3.17386e-13
-2.99549e-13
-2.39736e-13
-2.08172e-13
-1.93101e-13
-1.55066e-13
-1.19022e-13
-7.7409e-14
-1.527e-14
-6.35915e-13
-6.4943e-13
-6.58139e-13
-6.45297e-13
-6.09643e-13
-6.50145e-13
-6.53394e-13
-6.3148e-13
-6.57126e-13
-6.15664e-13
-5.76102e-13
-5.6409e-13
-5.73434e-13
-5.28953e-13
-5.27923e-13
-5.3581e-13
-5.35333e-13
-5.06822e-13
-5.03666e-13
-5.26756e-13
-5.69801e-13
-5.42039e-13
-5.48124e-13
-5.40251e-13
-5.1386e-13
-5.31314e-13
-5.41772e-13
-5.46766e-13
-5.58633e-13
-5.78817e-13
-5.64185e-13
-5.46919e-13
-5.68624e-13
-5.86749e-13
-6.07788e-13
-6.06758e-13
-6.14732e-13
-5.59874e-13
-5.84342e-13
-5.59745e-13
-5.19302e-13
-5.17644e-13
-5.35698e-13
-5.20882e-13
-4.79166e-13
-4.66265e-13
-4.56249e-13
-4.4479e-13
-4.21242e-13
-3.91579e-13
-3.41624e-13
-3.12409e-13
-2.89123e-13
-2.51626e-13
-2.07311e-13
-1.89837e-13
-1.56391e-13
-1.10287e-13
-7.36078e-14
-1.95916e-14
-6.24638e-13
-6.47141e-13
-6.72654e-13
-6.38094e-13
-6.10142e-13
-6.49674e-13
-6.47665e-13
-6.51004e-13
-6.50784e-13
-5.95163e-13
-5.75097e-13
-5.76041e-13
-5.78924e-13
-5.19041e-13
-5.24923e-13
-5.21693e-13
-5.33019e-13
-5.17692e-13
-4.95186e-13
-5.36192e-13
-5.59302e-13
-5.43312e-13
-5.52301e-13
-5.35642e-13
-5.19802e-13
-5.35054e-13
-5.46479e-13
-5.3153e-13
-5.53168e-13
-5.86074e-13
-5.50601e-13
-5.44933e-13
-5.87926e-13
-5.88224e-13
-6.10062e-13
-6.15066e-13
-6.07176e-13
-5.59316e-13
-5.7966e-13
-5.57686e-13
-5.16043e-13
-5.15791e-13
-5.36351e-13
-5.29635e-13
-4.82317e-13
-4.65748e-13
-4.56933e-13
-4.50431e-13
-4.30488e-13
-3.97578e-13
-3.48201e-13
-3.05573e-13
-2.7627e-13
-2.59735e-13
-1.99317e-13
-1.83593e-13
-1.5894e-13
-1.10762e-13
-6.36073e-14
-1.36812e-14
-6.1184e-13
-6.43274e-13
-6.71962e-13
-6.51504e-13
-6.30614e-13
-6.47147e-13
-6.47856e-13
-6.39823e-13
-6.52158e-13
-5.86835e-13
-5.68147e-13
-5.77644e-13
-5.72343e-13
-5.43336e-13
-5.11892e-13
-5.14823e-13
-5.27366e-13
-5.14727e-13
-5.0526e-13
-5.31142e-13
-5.56e-13
-5.38885e-13
-5.40698e-13
-5.41014e-13
-5.24579e-13
-5.34524e-13
-5.42629e-13
-5.21541e-13
-5.54273e-13
-5.82839e-13
-5.57092e-13
-5.46152e-13
-5.89361e-13
-5.92264e-13
-6.10394e-13
-6.30114e-13
-5.99318e-13
-5.52138e-13
-5.76211e-13
-5.49196e-13
-5.251e-13
-5.11009e-13
-5.28093e-13
-5.33842e-13
-4.89759e-13
-4.79243e-13
-4.66535e-13
-4.55188e-13
-4.25732e-13
-3.91634e-13
-3.59264e-13
-3.04983e-13
-2.72889e-13
-2.51819e-13
-1.98315e-13
-1.85312e-13
-1.5456e-13
-1.08093e-13
-6.11284e-14
-1.07067e-14
-5.95847e-13
-6.47478e-13
-6.71911e-13
-6.49054e-13
-6.35498e-13
-6.48579e-13
-6.497e-13
-6.31293e-13
-6.51429e-13
-5.95854e-13
-5.7427e-13
-5.65217e-13
-5.81149e-13
-5.66874e-13
-4.92467e-13
-5.19524e-13
-5.21087e-13
-5.48391e-13
-4.76242e-13
-5.41287e-13
-5.26476e-13
-5.37545e-13
-5.20518e-13
-5.43842e-13
-5.42043e-13
-5.30211e-13
-5.44832e-13
-5.15663e-13
-5.53807e-13
-5.82515e-13
-5.56944e-13
-5.52449e-13
-5.92697e-13
-6.09198e-13
-6.10023e-13
-6.20574e-13
-5.82938e-13
-5.70746e-13
-5.70319e-13
-5.48706e-13
-5.36417e-13
-5.09625e-13
-5.20129e-13
-5.37674e-13
-4.99345e-13
-4.90051e-13
-4.656e-13
-4.45254e-13
-4.34723e-13
-3.90459e-13
-3.56491e-13
-3.114e-13
-2.76652e-13
-2.49533e-13
-1.98184e-13
-1.72148e-13
-1.41901e-13
-1.10582e-13
-6.13148e-14
-9.49595e-15
-5.91575e-13
-6.50424e-13
-6.65733e-13
-6.63279e-13
-6.33443e-13
-6.46748e-13
-6.42502e-13
-6.25063e-13
-6.50927e-13
-5.98686e-13
-5.7035e-13
-5.68531e-13
-5.6791e-13
-6.05112e-13
-5.09027e-13
-5.26428e-13
-5.22008e-13
-5.32244e-13
-4.76975e-13
-5.34455e-13
-5.21577e-13
-5.45045e-13
-5.26133e-13
-5.33195e-13
-5.29453e-13
-5.34243e-13
-5.48287e-13
-5.28398e-13
-5.44065e-13
-5.71848e-13
-5.6476e-13
-5.66117e-13
-5.96365e-13
-6.1848e-13
-6.06492e-13
-6.11812e-13
-5.93198e-13
-5.75102e-13
-5.58184e-13
-5.34137e-13
-5.45908e-13
-5.11918e-13
-5.13443e-13
-5.39367e-13
-5.09806e-13
-5.01151e-13
-4.67667e-13
-4.40603e-13
-4.4424e-13
-3.89667e-13
-3.50691e-13
-3.19984e-13
-2.73193e-13
-2.37859e-13
-1.93383e-13
-1.67048e-13
-1.30002e-13
-1.09917e-13
-6.46579e-14
-3.57784e-15
-6.09206e-13
-6.40279e-13
-6.56048e-13
-6.60848e-13
-6.43346e-13
-6.45407e-13
-6.41609e-13
-6.26712e-13
-6.32229e-13
-5.98161e-13
-5.9295e-13
-5.60451e-13
-5.70223e-13
-6.01267e-13
-5.03568e-13
-5.31928e-13
-4.8885e-13
-5.09562e-13
-4.89878e-13
-4.90671e-13
-5.60449e-13
-5.35958e-13
-5.31318e-13
-5.2749e-13
-5.26379e-13
-5.33175e-13
-5.55378e-13
-5.3895e-13
-5.40968e-13
-5.76584e-13
-5.6387e-13
-5.73156e-13
-6.0599e-13
-6.16034e-13
-5.97355e-13
-6.12197e-13
-5.87052e-13
-5.72581e-13
-5.66731e-13
-5.37197e-13
-5.37043e-13
-5.09317e-13
-5.18172e-13
-5.41257e-13
-5.13799e-13
-5.03725e-13
-4.6238e-13
-4.52583e-13
-4.5211e-13
-3.88972e-13
-3.4626e-13
-3.23825e-13
-2.75049e-13
-2.22331e-13
-1.89794e-13
-1.63533e-13
-1.23174e-13
-1.03943e-13
-6.14089e-14
-3.17888e-15
-6.22067e-13
-6.22635e-13
-6.41387e-13
-6.67645e-13
-6.59494e-13
-6.52656e-13
-6.48104e-13
-6.10518e-13
-6.22276e-13
-6.09305e-13
-6.02786e-13
-5.56537e-13
-5.81506e-13
-5.91601e-13
-5.40806e-13
-5.25064e-13
-4.82328e-13
-4.97404e-13
-4.93155e-13
-4.99825e-13
-5.81404e-13
-5.35873e-13
-5.34591e-13
-5.22762e-13
-5.28206e-13
-5.46769e-13
-5.48501e-13
-5.44696e-13
-5.53615e-13
-5.73258e-13
-5.74108e-13
-5.88687e-13
-6.08991e-13
-6.04792e-13
-5.98995e-13
-6.1489e-13
-5.83821e-13
-5.77879e-13
-5.4947e-13
-5.46831e-13
-5.34288e-13
-5.10513e-13
-5.22482e-13
-5.41217e-13
-5.16739e-13
-4.98311e-13
-4.53852e-13
-4.5715e-13
-4.54241e-13
-3.91711e-13
-3.51989e-13
-3.27374e-13
-2.71302e-13
-2.16251e-13
-1.92843e-13
-1.56361e-13
-1.13734e-13
-9.94331e-14
-6.72124e-14
-7.68228e-15
-6.08783e-13
-6.30173e-13
-6.44761e-13
-6.59124e-13
-6.67668e-13
-6.53573e-13
-6.37486e-13
-6.10444e-13
-6.24457e-13
-6.13479e-13
-5.89351e-13
-5.67312e-13
-5.67976e-13
-6.19821e-13
-5.32139e-13
-4.94767e-13
-4.31083e-13
-4.99017e-13
-4.7234e-13
-5.27989e-13
-5.82404e-13
-5.39995e-13
-5.41571e-13
-5.28516e-13
-5.30035e-13
-5.44599e-13
-5.25951e-13
-5.58839e-13
-5.58339e-13
-5.83549e-13
-5.76816e-13
-5.85706e-13
-6.04462e-13
-6.15618e-13
-5.9335e-13
-6.04267e-13
-5.77047e-13
-5.76541e-13
-5.53196e-13
-5.61155e-13
-5.37499e-13
-5.10056e-13
-5.10217e-13
-5.50067e-13
-5.16517e-13
-5.01227e-13
-4.58493e-13
-4.62864e-13
-4.40219e-13
-3.85027e-13
-3.52861e-13
-3.19395e-13
-2.70758e-13
-2.24977e-13
-1.94976e-13
-1.49182e-13
-1.13857e-13
-9.79543e-14
-5.39511e-14
-1.82096e-14
-6.20138e-13
-6.28636e-13
-6.45752e-13
-6.63513e-13
-6.722e-13
-6.40518e-13
-6.39824e-13
-6.13913e-13
-6.18556e-13
-6.09631e-13
-5.85816e-13
-5.84727e-13
-5.70408e-13
-5.52527e-13
-5.77606e-13
-5.30528e-13
-4.65389e-13
-5.18521e-13
-4.81561e-13
-5.20155e-13
-5.91884e-13
-5.39388e-13
-5.45988e-13
-5.20822e-13
-5.33226e-13
-5.42765e-13
-5.22493e-13
-5.53113e-13
-5.73367e-13
-5.86399e-13
-5.83114e-13
-5.79854e-13
-6.15307e-13
-6.11734e-13
-5.84808e-13
-5.87816e-13
-5.9674e-13
-5.67198e-13
-5.62529e-13
-5.53819e-13
-5.32061e-13
-5.18586e-13
-5.201e-13
-5.45338e-13
-5.18273e-13
-5.00278e-13
-4.75865e-13
-4.68282e-13
-4.23375e-13
-3.82615e-13
-3.56669e-13
-3.19766e-13
-2.75213e-13
-2.20348e-13
-1.92578e-13
-1.44547e-13
-1.16245e-13
-8.84946e-14
-4.60878e-14
-1.46062e-14
-6.24422e-13
-6.33596e-13
-6.57219e-13
-6.66525e-13
-6.76323e-13
-6.39199e-13
-6.46811e-13
-6.02897e-13
-6.11487e-13
-6.07361e-13
-5.88188e-13
-5.97076e-13
-5.54254e-13
-5.48485e-13
-5.49802e-13
-5.17492e-13
-4.75011e-13
-5.93773e-13
-4.6583e-13
-5.29174e-13
-5.03596e-13
-5.39807e-13
-5.52581e-13
-5.10854e-13
-5.38294e-13
-5.42351e-13
-5.23299e-13
-5.44237e-13
-5.76643e-13
-5.85809e-13
-5.81945e-13
-5.90302e-13
-6.18238e-13
-6.0089e-13
-5.89267e-13
-5.83885e-13
-6.1053e-13
-5.75196e-13
-5.47776e-13
-5.44871e-13
-5.39968e-13
-5.28762e-13
-5.37514e-13
-5.36298e-13
-5.16912e-13
-4.99223e-13
-4.94294e-13
-4.61511e-13
-4.27297e-13
-3.87572e-13
-3.51473e-13
-3.21021e-13
-2.64483e-13
-2.2173e-13
-1.78421e-13
-1.42057e-13
-1.22138e-13
-8.68474e-14
-4.38049e-14
-1.01093e-14
-6.19643e-13
-6.35229e-13
-6.66334e-13
-6.69371e-13
-6.81011e-13
-6.37278e-13
-6.42953e-13
-6.09792e-13
-6.02774e-13
-6.10979e-13
-5.90299e-13
-5.97499e-13
-5.43023e-13
-5.2624e-13
-5.05077e-13
-5.37958e-13
-4.77497e-13
-5.59959e-13
-4.89127e-13
-5.18662e-13
-5.21618e-13
-5.31514e-13
-5.59234e-13
-5.10154e-13
-5.38637e-13
-5.3469e-13
-5.30732e-13
-5.44727e-13
-5.69091e-13
-5.79331e-13
-5.82525e-13
-5.93275e-13
-6.18734e-13
-6.04702e-13
-5.94152e-13
-6.01622e-13
-6.03195e-13
-5.64881e-13
-5.49428e-13
-5.36726e-13
-5.31189e-13
-5.31483e-13
-5.4898e-13
-5.42131e-13
-5.22902e-13
-4.95635e-13
-4.9522e-13
-4.57984e-13
-4.30067e-13
-3.8232e-13
-3.51581e-13
-3.25242e-13
-2.53343e-13
-2.15169e-13
-1.85009e-13
-1.44814e-13
-1.23015e-13
-8.37549e-14
-3.66408e-14
-5.76705e-15
-6.32231e-13
-6.3104e-13
-6.72363e-13
-6.7432e-13
-6.73247e-13
-6.48316e-13
-6.36613e-13
-6.22293e-13
-5.91468e-13
-5.96437e-13
-5.96581e-13
-5.89647e-13
-5.5311e-13
-5.29335e-13
-5.81025e-13
-5.46858e-13
-4.89221e-13
-5.20788e-13
-4.93136e-13
-5.32262e-13
-5.31944e-13
-5.40831e-13
-5.49817e-13
-5.15024e-13
-5.29964e-13
-5.28817e-13
-5.47238e-13
-5.60268e-13
-5.64041e-13
-5.69239e-13
-5.80759e-13
-5.89845e-13
-6.14718e-13
-6.05802e-13
-6.02194e-13
-6.12793e-13
-6.04575e-13
-5.54615e-13
-5.44837e-13
-5.2945e-13
-5.27935e-13
-5.38513e-13
-5.56039e-13
-5.47122e-13
-5.19646e-13
-4.99065e-13
-4.96268e-13
-4.61696e-13
-4.34131e-13
-3.81759e-13
-3.52328e-13
-3.17801e-13
-2.53617e-13
-2.07571e-13
-1.81062e-13
-1.46111e-13
-1.24459e-13
-8.75661e-14
-2.97581e-14
1.90135e-15
-6.45799e-13
-6.39237e-13
-6.71474e-13
-6.85947e-13
-6.68129e-13
-6.49008e-13
-6.42749e-13
-6.17348e-13
-5.87895e-13
-5.90441e-13
-6.03528e-13
-5.87882e-13
-5.45149e-13
-5.41362e-13
-5.69605e-13
-5.31779e-13
-5.1082e-13
-5.19007e-13
-5.05706e-13
-5.34706e-13
-5.0599e-13
-5.48896e-13
-5.54222e-13
-5.25427e-13
-5.30332e-13
-5.16852e-13
-5.43668e-13
-5.62975e-13
-5.80478e-13
-5.68336e-13
-5.57688e-13
-5.86053e-13
-6.19374e-13
-5.94057e-13
-6.01874e-13
-6.3124e-13
-5.9586e-13
-5.50361e-13
-5.32578e-13
-5.31719e-13
-5.40385e-13
-5.395e-13
-5.65955e-13
-5.51445e-13
-5.1905e-13
-5.03509e-13
-4.97735e-13
-4.60936e-13
-4.34929e-13
-3.83737e-13
-3.47061e-13
-3.17537e-13
-2.51484e-13
-1.94319e-13
-1.76126e-13
-1.53433e-13
-1.32106e-13
-8.64432e-14
-3.03542e-14
-3.48665e-15
-6.56564e-13
-6.52517e-13
-6.73423e-13
-6.94533e-13
-6.59458e-13
-6.50534e-13
-6.53605e-13
-6.09886e-13
-5.78764e-13
-5.76341e-13
-5.87191e-13
-6.11188e-13
-5.38053e-13
-5.63699e-13
-5.53076e-13
-5.29269e-13
-5.05788e-13
-5.21817e-13
-5.1687e-13
-5.42738e-13
-5.12119e-13
-5.4841e-13
-5.44964e-13
-5.25005e-13
-5.37007e-13
-5.1128e-13
-5.44446e-13
-5.66304e-13
-5.73215e-13
-5.69577e-13
-5.57388e-13
-6.04432e-13
-6.07168e-13
-5.89872e-13
-6.0915e-13
-6.33549e-13
-6.01855e-13
-5.4648e-13
-5.29764e-13
-5.29324e-13
-5.37479e-13
-5.38591e-13
-5.66726e-13
-5.52695e-13
-5.27589e-13
-5.07574e-13
-4.92499e-13
-4.59135e-13
-4.34704e-13
-3.8463e-13
-3.44817e-13
-3.08059e-13
-2.59446e-13
-2.0446e-13
-1.75589e-13
-1.50177e-13
-1.22133e-13
-7.63695e-14
-3.27867e-14
-7.83957e-15
-6.53872e-13
-6.60134e-13
-6.72286e-13
-7.0291e-13
-6.61498e-13
-6.4422e-13
-6.54533e-13
-6.02644e-13
-5.80991e-13
-5.67986e-13
-6.0082e-13
-6.09318e-13
-5.53735e-13
-5.57448e-13
-5.56457e-13
-5.24172e-13
-4.98843e-13
-5.39197e-13
-5.23442e-13
-5.39452e-13
-5.1983e-13
-5.50671e-13
-5.28482e-13
-5.15919e-13
-5.4467e-13
-5.1347e-13
-5.4436e-13
-5.58384e-13
-5.69513e-13
-5.69163e-13
-5.47668e-13
-6.22383e-13
-6.01547e-13
-5.92025e-13
-6.26302e-13
-6.38649e-13
-5.84064e-13
-5.44173e-13
-5.34603e-13
-5.38875e-13
-5.34737e-13
-5.31928e-13
-5.59929e-13
-5.55371e-13
-5.34942e-13
-5.12329e-13
-4.83238e-13
-4.5583e-13
-4.36154e-13
-3.8385e-13
-3.45815e-13
-3.18491e-13
-2.60564e-13
-2.12649e-13
-1.75216e-13
-1.39921e-13
-1.13729e-13
-7.80701e-14
-2.69547e-14
-8.84941e-15
-6.57649e-13
-6.58819e-13
-6.75219e-13
-6.97328e-13
-6.6295e-13
-6.30223e-13
-6.54862e-13
-6.10354e-13
-5.72987e-13
-5.79202e-13
-5.95609e-13
-6.00345e-13
-5.66223e-13
-5.67015e-13
-5.5638e-13
-5.20056e-13
-4.98047e-13
-5.50833e-13
-5.0508e-13
-5.46001e-13
-5.30033e-13
-5.38196e-13
-5.21547e-13
-5.15995e-13
-5.46748e-13
-5.19635e-13
-5.41645e-13
-5.57116e-13
-5.59328e-13
-5.69018e-13
-5.52392e-13
-6.24866e-13
-6.17459e-13
-5.79993e-13
-6.3889e-13
-6.37899e-13
-5.74655e-13
-5.50938e-13
-5.3015e-13
-5.27861e-13
-5.46958e-13
-5.37445e-13
-5.55139e-13
-5.49449e-13
-5.35119e-13
-5.11292e-13
-4.85126e-13
-4.60208e-13
-4.29887e-13
-3.82813e-13
-3.48443e-13
-3.11329e-13
-2.57499e-13
-2.33724e-13
-1.75974e-13
-1.21139e-13
-1.15977e-13
-8.21712e-14
-1.96448e-14
-1.32705e-14
-6.26417e-13
-6.60366e-13
-6.63812e-13
-6.45288e-13
-6.17704e-13
-6.50466e-13
-6.51768e-13
-6.46527e-13
-6.55644e-13
-6.3481e-13
-5.73878e-13
-5.64889e-13
-5.50795e-13
-5.29635e-13
-5.30109e-13
-5.57186e-13
-5.58919e-13
-5.15581e-13
-5.00918e-13
-5.18626e-13
-5.62555e-13
-5.41829e-13
-5.45641e-13
-5.24149e-13
-5.26293e-13
-5.32016e-13
-5.26396e-13
-5.46195e-13
-5.69482e-13
-5.6849e-13
-5.65399e-13
-5.63359e-13
-5.60649e-13
-5.9109e-13
-5.92985e-13
-5.98753e-13
-5.99624e-13
-5.96403e-13
-5.82127e-13
-5.58914e-13
-5.18305e-13
-5.38062e-13
-5.25769e-13
-5.14035e-13
-4.67833e-13
-4.70491e-13
-4.61363e-13
-4.32898e-13
-4.0686e-13
-3.84994e-13
-3.4536e-13
-3.19318e-13
-2.99073e-13
-2.50091e-13
-2.10334e-13
-1.79419e-13
-1.59813e-13
-1.26358e-13
-7.91109e-14
-1.20139e-14
-6.43488e-13
-6.48995e-13
-6.61608e-13
-6.45972e-13
-6.18568e-13
-6.4685e-13
-6.52498e-13
-6.36337e-13
-6.58904e-13
-6.26059e-13
-5.78168e-13
-5.58519e-13
-5.59031e-13
-5.29367e-13
-5.32897e-13
-5.42449e-13
-5.47254e-13
-5.18262e-13
-5.02126e-13
-5.28373e-13
-5.61441e-13
-5.40417e-13
-5.4316e-13
-5.31516e-13
-5.28849e-13
-5.33298e-13
-5.31786e-13
-5.43143e-13
-5.61233e-13
-5.7706e-13
-5.62756e-13
-5.533e-13
-5.66851e-13
-5.96614e-13
-5.93591e-13
-5.92733e-13
-6.09408e-13
-5.92885e-13
-5.83908e-13
-5.48355e-13
-5.17445e-13
-5.25551e-13
-5.35032e-13
-5.19462e-13
-4.70741e-13
-4.73854e-13
-4.54019e-13
-4.33975e-13
-4.1327e-13
-3.88888e-13
-3.48906e-13
-3.1939e-13
-2.98321e-13
-2.48446e-13
-2.03519e-13
-1.87495e-13
-1.6099e-13