/*--------------------------------*- C++ -*----------------------------------*\
  =========                 |
  \\      /  F ield         | OpenFOAM: The Open Source CFD Toolbox
   \\    /   O peration     | Website:  https://openfoam.org
    \\  /    A nd           | Version:  13
     \\/     M anipulation  |
\*---------------------------------------------------------------------------*/
FoamFile
{
    format      ascii;
    class       volVectorField;
    location    "4";
    object      U;
}
// * * * * * * * * * * * * * * * * * * * * * * * * * * * * * * * * * * * * * //

dimensions      [0 1 -1 0 0 0 0];

internalField   nonuniform List<vector> 
54636
(
(20 -1.07476e-16 -4.11551e-16)
(20 -7.00841e-17 -2.18517e-16)
(20 -2.61487e-16 2.83553e-16)
(20 1.354e-16 2.31548e-16)
(20 8.96131e-17 3.02441e-16)
(20 -5.17059e-16 -2.83656e-16)
(20 -1.00599e-16 -6.68469e-16)
(20 1.81089e-16 4.75286e-16)
(20 5.93412e-16 4.05407e-16)
(20 -1.43252e-16 -1.76374e-16)
(20 1.12581e-16 -1.20189e-16)
(20 -1.68201e-16 -4.16881e-16)
(20 1.01234e-15 -6.94633e-17)
(20 2.34385e-16 -5.35634e-16)
(20 -2.72388e-16 -5.74212e-16)
(20 -2.51561e-16 4.49245e-16)
(20 -8.64082e-16 6.8613e-17)
(20 -3.30458e-16 2.29126e-16)
(20 6.19611e-17 4.55693e-16)
(20 -8.76555e-17 8.07375e-18)
(20 -3.84655e-16 5.18417e-16)
(20 -1.01715e-17 2.90605e-16)
(20 -3.93396e-16 -9.35313e-17)
(20 1.01593e-16 -2.95818e-16)
(20 -5.90489e-17 4.38278e-16)
(20 5.20848e-16 3.45366e-16)
(20 8.28471e-16 -2.68477e-17)
(20 2.86388e-16 -5.07324e-16)
(20 -4.28021e-16 -2.72515e-16)
(20 1.66398e-16 1.2783e-16)
(20 -2.11918e-16 2.88916e-17)
(20 -8.64274e-16 -2.29981e-17)
(20 -6.3443e-16 -1.3736e-16)
(20 -8.03203e-16 -2.16341e-16)
(20 1.87405e-16 4.23072e-16)
(20 -1.12479e-16 -4.2069e-16)
(20 6.57615e-16 -3.74647e-16)
(20 -5.23224e-16 3.42008e-16)
(20 -3.39894e-16 -1.84714e-16)
(20 7.86651e-17 -1.80181e-17)
(20 2.51525e-16 2.60813e-17)
(20 2.24293e-16 3.29661e-16)
(20 7.23219e-16 5.53926e-16)
(20 5.65644e-17 3.72138e-16)
(20 -5.30087e-16 -4.81525e-16)
(20 -7.2661e-17 -1.56564e-16)
(20 1.53771e-16 5.24675e-16)
(20 1.78773e-16 2.97061e-16)
(20 4.44303e-16 -1.19555e-17)
(20 1.86524e-16 9.55066e-17)
(20 -1.77407e-16 -3.88657e-16)
(20 -5.8221e-16 -1.54256e-16)
(20 -5.80061e-16 2.0979e-16)
(20 2.28909e-17 3.4337e-16)
(20 8.56082e-16 4.47244e-16)
(20 6.67278e-16 -8.64402e-17)
(20 -3.43285e-16 -5.74726e-16)
(20 -7.57559e-16 -5.45945e-16)
(20 -1.69611e-16 1.54037e-16)
(20 6.62625e-16 3.31576e-16)
(20 -4.62461e-16 1.25588e-16)
(20 -3.7739e-16 -8.0449e-17)
(20 -5.86866e-17 2.32242e-16)
(20 3.09873e-16 -5.86765e-17)
(20 2.06455e-16 2.56946e-16)
(20 -6.20725e-16 2.41832e-17)
(20 -5.07538e-16 -6.26991e-16)
(20 -1.24281e-17 1.10021e-16)
(20 6.83633e-16 4.48265e-17)
(20 -1.16811e-16 2.02107e-16)
(20 -6.26556e-16 2.36632e-17)
(20 -2.37481e-16 -4.1528e-16)
(20 1.45296e-15 -3.35649e-16)
(20 5.63549e-16 -5.83794e-16)
(20 -6.5522e-16 -1.12572e-17)
(20 -7.27038e-16 3.20083e-16)
(20 -9.78825e-16 1.42437e-16)
(20 -3.07544e-16 1.43502e-16)
(20 1.08613e-16 2.4509e-16)
(20 -4.91217e-16 4.68417e-17)
(20 2.52368e-16 7.49367e-16)
(20 3.41359e-16 -8.50347e-17)
(20 -7.53832e-16 1.4806e-16)
(20 3.22179e-16 -3.74016e-16)
(20 5.22572e-16 3.35661e-16)
(20 4.28739e-16 1.78699e-16)
(20 3.21126e-16 -4.30752e-16)
(20 3.21254e-16 -2.16727e-17)
(20 -5.4949e-16 1.95735e-16)
(20 8.37399e-17 6.7788e-17)
(20 -1.50271e-16 1.75075e-16)
(20 -1.13299e-15 1.09593e-16)
(20 1.57298e-16 2.10915e-16)
(20 -1.58959e-17 2.49499e-16)
(20 9.05572e-16 1.55117e-16)
(20 4.65689e-16 -2.45819e-16)
(20 8.95706e-16 -8.09346e-16)
(20 -9.12015e-16 3.9374e-16)
(20 -9.10482e-16 -3.0012e-16)
(20 -2.57675e-16 -2.15179e-16)
(20 -5.19819e-17 9.12517e-18)
(20 -2.52451e-16 -2.51582e-16)
(20 8.37654e-16 1.45757e-18)
(20 4.85568e-17 3.60396e-16)
(20 -8.95036e-16 -4.64523e-17)
(20 -3.29563e-16 4.21074e-17)
(20 1.69214e-16 3.03368e-16)
(20 4.82039e-16 3.94114e-17)
(20 4.99367e-16 -3.49042e-16)
(20 4.34695e-16 1.32543e-16)
(20 -2.2495e-16 -1.02038e-17)
(20 -3.18182e-16 1.83613e-16)
(20 -5.163e-16 4.96616e-16)
(20 3.95781e-16 1.14225e-16)
(20 1.01247e-15 -1.42914e-16)
(20 3.01067e-16 -2.62612e-16)
(20 -5.04796e-16 -1.21221e-17)
(20 -8.83906e-16 -5.93175e-17)
(20 -1.49388e-16 2.1262e-16)
(20 7.7167e-16 1.02986e-16)
(20 -3.43879e-16 6.07915e-16)
(20 -4.58675e-16 2.50784e-16)
(20 7.67067e-16 5.28733e-17)
(20 4.86651e-16 8.456e-17)
(20 4.14909e-16 -9.72637e-18)
(20 3.48041e-17 -3.54437e-17)
(20 -1.01761e-15 1.17572e-16)
(20 4.05033e-16 2.9133e-16)
(20 2.33171e-16 -3.66546e-16)
(20 -8.7607e-16 -4.17947e-17)
(20 -1.02032e-15 2.30192e-16)
(20 -8.86234e-17 -2.01962e-16)
(20 1.047e-15 -2.19926e-16)
(20 2.56547e-17 -2.45456e-16)
(20 -5.4755e-16 1.54861e-16)
(20 -6.86533e-16 5.52242e-16)
(20 -4.80492e-16 1.49596e-17)
(20 2.40772e-16 1.28005e-16)
(20 3.111e-16 8.53543e-17)
(20 -2.61627e-16 3.11037e-16)
(20 7.97636e-16 1.61988e-16)
(20 5.52012e-16 -2.43229e-16)
(20 -3.17033e-16 3.23226e-16)
(20 -6.66067e-17 -4.91274e-17)
(20 1.06898e-15 1.21584e-16)
(20 4.96901e-16 1.36693e-16)
(20 -2.81244e-16 -2.42388e-16)
(20 -7.28591e-17 -7.84974e-18)
(20 -8.92856e-16 4.25987e-16)
(20 -1.089e-16 -2.64695e-16)
(20 -4.75072e-16 -8.17338e-18)
(20 -2.07145e-16 1.72122e-16)
(20 1.28195e-15 1.47006e-16)
(20 6.47321e-16 -1.91102e-16)
(20 9.78947e-16 -9.95089e-18)
(20 9.41853e-16 -3.48552e-16)
(20 3.75791e-16 -6.44892e-16)
(20 -2.02233e-16 2.00385e-16)
(20 -7.67534e-16 1.45119e-16)
(20 -6.37494e-16 2.02166e-16)
(20 -6.41469e-16 -6.53944e-17)
(20 -6.36301e-16 -3.47416e-16)
(20 2.76665e-16 -4.49657e-16)
(20 3.97175e-16 9.05962e-17)
(20 -6.80812e-16 4.86407e-16)
(20 -3.47905e-16 6.00749e-17)
(20 8.79639e-17 4.16874e-17)
(20 4.52353e-16 2.56304e-16)
(20 2.08994e-16 -1.02179e-17)
(20 6.71263e-16 2.37201e-18)
(20 4.69738e-16 -1.16538e-16)
(20 -7.2104e-18 -1.34606e-16)
(20 -3.90651e-16 1.57889e-16)
(20 4.23436e-16 8.09538e-17)
(20 2.38208e-16 -4.8171e-17)
(20 -2.54531e-16 -5.06415e-17)
(20 -2.10318e-16 2.84572e-17)
(20 -4.7841e-16 -1.6487e-16)
(20 -1.91788e-16 1.28388e-17)
(20 -4.14681e-17 1.06078e-16)
(20 -9.17809e-16 1.58199e-16)
(20 -1.59594e-16 3.63538e-17)
(20 7.27767e-16 -6.40965e-17)
(20 8.37345e-16 -2.01494e-16)
(20 7.86923e-16 -2.34216e-16)
(20 2.10067e-16 -1.9827e-16)
(20 -5.9207e-16 4.44335e-16)
(20 2.40323e-16 3.08624e-16)
(20 -4.7668e-17 -3.03629e-16)
(20 -6.59361e-16 -8.36223e-17)
(20 -2.41494e-16 1.70414e-16)
(20 -1.00888e-16 3.7596e-16)
(20 5.09147e-16 -2.35656e-16)
(20 2.84336e-16 -4.49362e-17)
(20 -9.57216e-16 1.89107e-16)
(20 -2.7947e-16 3.2706e-16)
(20 -2.70627e-16 7.41888e-17)
(20 -1.74049e-16 1.23261e-16)
(20 1.43181e-16 -3.08748e-16)
(20 8.63228e-16 4.73996e-16)
(20 -8.95173e-17 -3.5114e-16)
(20 -4.65517e-16 -2.16699e-16)
(20 -1.29511e-16 4.87594e-16)
(20 -1.15692e-18 1.63155e-17)
(20 6.00838e-16 -2.06022e-16)
(20 8.31758e-16 -1.12756e-16)
(20 1.40678e-16 2.1167e-16)
(20 -5.85198e-16 4.52468e-17)
(20 -8.39293e-16 7.06139e-16)
(20 -3.94869e-16 -3.76994e-16)
(20 -6.80953e-17 8.94119e-17)
(20 3.1732e-17 -4.18602e-16)
(20 7.71174e-16 -1.02664e-16)
(20 6.28772e-16 -2.80338e-17)
(20 8.92558e-16 1.32504e-16)
(20 1.33746e-15 -8.09268e-17)
(20 1.60087e-16 -3.64136e-16)
(20 -2.20982e-16 8.69594e-17)
(20 -3.95437e-16 -1.63769e-17)
(20 -9.73316e-16 5.43071e-17)
(20 -3.29795e-16 1.69302e-16)
(20 -4.64422e-16 -1.12209e-16)
(20 -3.65806e-16 -4.24812e-16)
(20 2.75312e-16 -1.12759e-16)
(20 3.18213e-16 5.86289e-16)
(20 3.61779e-16 -1.2219e-17)
(20 1.94812e-16 -1.11031e-16)
(20 5.81835e-16 3.20231e-16)
(20 1.06532e-16 1.76392e-16)
(20 -8.17658e-17 -8.61565e-17)
(20 7.35626e-16 -2.1958e-16)
(20 1.24931e-17 1.35498e-16)
(20 -5.91193e-16 -1.4973e-18)
(20 -2.47905e-16 1.54432e-16)
(20 4.04979e-17 -1.14386e-16)
(20 1.23112e-16 -1.33606e-16)
(20 -1.95774e-17 4.57119e-17)
(20 -8.36788e-17 -5.74874e-17)
(20 -4.46171e-16 -1.71294e-16)
(20 -4.80164e-16 1.16399e-16)
(20 -1.01477e-15 7.9547e-16)
(20 -3.92335e-16 -1.11505e-16)
(20 -2.1661e-16 -3.83771e-16)
(20 6.68701e-16 -3.57342e-16)
(20 6.19596e-16 4.68262e-17)
(20 3.98302e-16 -5.56036e-17)
(20 8.79291e-16 5.81957e-16)
(20 -1.9094e-16 3.78848e-16)
(20 -5.56733e-16 -5.12235e-16)
(20 -5.41901e-16 -6.75224e-16)
(20 -1.74736e-16 -4.13742e-16)
(20 -4.66648e-16 1.51878e-16)
(20 -3.87302e-16 -3.28994e-16)
(20 9.90105e-16 -4.25101e-16)
(20 -4.71075e-16 4.84601e-16)
(20 -6.69454e-16 -7.4659e-17)
(20 -2.37714e-16 -2.18902e-16)
(20 7.38658e-16 -2.47876e-16)
(20 -2.64267e-16 2.6933e-16)
(20 9.64739e-16 5.12138e-16)
(20 -1.2069e-16 5.49184e-17)
(20 -9.87571e-16 2.35061e-17)
(20 -4.46519e-16 1.76955e-16)
(20 3.48205e-16 -1.58826e-16)
(20 1.07346e-15 -8.25026e-18)
(20 4.4711e-16 -2.58973e-16)
(20 5.57328e-16 2.30418e-16)
(20 -8.69687e-16 1.18943e-16)
(20 -3.55416e-16 4.32404e-16)
(20 -6.91559e-16 -1.06859e-16)
(20 4.40758e-16 -1.94618e-16)
(20 -2.54996e-16 -1.68864e-16)
(20 2.81999e-16 2.12725e-17)
(20 1.13214e-15 -1.44142e-16)
(20 8.86236e-16 -2.22129e-16)
(20 9.53557e-16 -1.21044e-16)
(20 -7.69736e-16 -4.08239e-16)
(20 -1.88663e-16 2.22532e-16)
(20 1.21357e-16 2.36804e-17)
(20 -4.03545e-16 2.593e-16)
(20 3.83573e-16 2.12942e-16)
(20 -4.55394e-16 1.20606e-17)
(20 -8.42224e-16 -3.61299e-16)
(20 -1.06131e-16 -1.2029e-16)
(20 6.67717e-16 1.41193e-16)
(20 9.07712e-16 -1.62888e-16)
(20 2.11322e-16 1.41172e-16)
(20 3.86746e-16 2.55412e-16)
(20 5.62365e-18 1.92979e-16)
(20 -6.49169e-16 5.31176e-17)
(20 8.46504e-18 -2.20696e-16)
(20 7.89009e-16 -9.83354e-17)
(20 -5.75026e-17 2.64409e-17)
(20 -4.20563e-16 2.59609e-16)
(20 1.37906e-16 -2.09614e-16)
(20 2.90436e-17 -8.19534e-17)
(20 -3.81189e-16 -3.49342e-17)
(20 2.05865e-17 -2.39926e-16)
(20 1.20629e-19 1.35907e-17)
(20 1.95525e-16 2.12006e-16)
(20 8.82196e-17 1.7489e-16)
(20 8.58243e-17 -1.87021e-16)
(20 -5.39087e-16 2.99725e-17)
(20 2.45403e-16 -2.28501e-16)
(20 3.35758e-16 4.03766e-16)
(20 -2.23226e-16 -4.62956e-17)
(20 1.15225e-15 -2.81273e-16)
(20 5.36007e-16 -4.11271e-17)
(20 -4.33174e-16 -3.02108e-17)
(20 -5.68249e-16 1.3478e-16)
(20 -5.15044e-16 1.817e-17)
(20 -6.38866e-16 2.50644e-16)
(20 -6.61894e-16 9.44066e-17)
(20 3.3501e-16 -1.09755e-16)
(20 -4.41678e-16 1.08171e-16)
(20 1.76452e-16 4.50967e-16)
(20 -3.75034e-16 -1.60303e-16)
(20 1.87632e-16 -2.49099e-16)
(20 -6.81172e-16 2.17733e-16)
(20 6.40243e-16 4.51736e-16)
(20 -1.20713e-15 -1.30605e-16)
(20 2.78208e-16 8.12278e-16)
(20 2.87866e-16 -9.98548e-17)
(20 -3.76125e-16 -6.64684e-16)
(20 3.32319e-16 -6.4021e-16)
(20 -1.68829e-16 -6.13869e-17)
(20 3.61413e-16 7.06126e-17)
(20 2.05384e-16 4.5073e-16)
(20 -2.46489e-16 5.86799e-16)
(20 -6.07393e-16 2.21664e-16)
(20 -4.72721e-16 -2.45381e-16)
(20 5.62963e-16 7.7779e-17)
(20 4.88129e-16 -4.69056e-17)
(20 9.35041e-16 -3.27773e-16)
(20 6.32008e-16 -7.83286e-17)
(20 1.36116e-17 -1.00102e-16)
(20 -5.90688e-16 -1.10184e-16)
(20 4.87255e-16 4.64082e-16)
(20 -1.05217e-16 -5.44027e-16)
(20 -2.78895e-16 -1.42828e-16)
(20 -9.60206e-17 4.04904e-16)
(20 -4.66665e-16 4.31944e-16)
(20 -7.93347e-16 -2.18395e-16)
(20 -2.00558e-16 -2.24958e-16)
(20 2.7681e-16 1.03616e-16)
(20 6.64605e-16 -1.93947e-16)
(20 2.00035e-16 2.44078e-16)
(20 -2.96997e-17 5.55643e-17)
(20 7.92919e-16 3.90372e-16)
(20 -2.12297e-16 2.59505e-16)
(20 -3.71414e-16 -1.13243e-16)
(20 4.7076e-16 -4.42833e-16)
(20 -1.53613e-16 -6.62205e-17)
(20 -4.56333e-16 9.66679e-17)
(20 -2.29944e-16 -3.13278e-16)
(20 -5.44011e-16 -2.82327e-16)
(20 -5.03175e-16 1.1014e-16)
(20 9.52285e-17 2.97349e-17)
(20 4.63178e-16 -1.06401e-16)
(20 7.26805e-17 -2.59716e-16)
(20 1.07208e-15 7.28714e-17)
(20 1.69258e-16 -1.06605e-16)
(20 -6.23224e-16 7.84044e-17)
(20 -1.43598e-16 -6.41826e-17)
(20 8.38581e-16 3.1034e-16)
(20 5.22421e-16 4.68273e-16)
(20 -8.40901e-17 -7.18338e-16)
(20 2.2073e-17 -8.93928e-16)
(20 -6.25334e-16 -8.34002e-17)
(20 -1.95682e-16 1.902e-16)
(20 5.08489e-17 1.75979e-16)
(20 -2.72277e-16 2.18741e-16)
(20 -6.12107e-16 -2.22401e-16)
(20 -1.05062e-16 2.02513e-16)
(20 7.87572e-16 9.64991e-17)
(20 -1.69377e-16 -4.54642e-17)
(20 5.30546e-16 3.29699e-16)
(20 -5.15084e-16 -3.1784e-17)
(20 7.34791e-16 2.31442e-16)
(20 -5.0489e-16 -1.40127e-16)
(20 6.4065e-16 1.53887e-16)
(20 6.73398e-16 3.65688e-16)
(20 7.44704e-16 -3.12567e-16)
(20 -7.56192e-16 -2.06646e-16)
(20 -9.01241e-16 -4.19286e-16)
(20 -3.96389e-16 6.07792e-18)
(20 5.60033e-16 2.95966e-16)
(20 1.85509e-15 3.77992e-16)
(20 -1.743e-16 3.60649e-16)
(20 -5.15409e-16 -2.47504e-16)
(20 -3.07841e-16 1.47848e-16)
(20 8.86304e-16 6.83555e-17)
(20 5.83811e-16 3.12541e-17)
(20 1.03633e-16 -9.317e-17)
(20 5.97875e-16 -4.08502e-16)
(20 -1.81816e-16 -7.67809e-17)
(20 -1.85139e-16 -2.07942e-16)
(20 2.11789e-16 2.0844e-16)
(20 -1.10741e-15 -1.31732e-16)
(20 -5.20526e-16 -1.20758e-16)
(20 -9.23174e-17 8.28368e-16)
(20 -2.37725e-16 5.92661e-16)
(20 -1.72783e-16 -5.30554e-16)
(20 -1.56326e-16 -3.81635e-16)
(20 -7.32304e-19 1.7027e-16)
(20 4.32711e-16 6.26373e-18)
(20 -5.88103e-17 2.58198e-16)
(20 8.25551e-17 -5.30755e-17)
(20 1.32295e-15 -2.18336e-16)
(20 6.20746e-16 3.0736e-16)
(20 -1.2081e-16 4.53834e-17)
(20 -2.78574e-16 -1.57497e-16)
(20 -5.42736e-16 1.98278e-17)
(20 -7.33397e-16 2.0155e-17)
(20 -6.54951e-16 -2.3487e-16)
(20 -6.8201e-16 -4.025e-17)
(20 -2.11868e-16 -3.93615e-17)
(20 -1.93073e-17 -8.11047e-17)
(20 8.90812e-17 -2.43364e-16)
(20 -3.21975e-16 -1.44276e-16)
(20 1.23832e-15 -1.39195e-16)
(20 -1.82669e-16 3.72016e-16)
(20 -9.06436e-16 2.94509e-16)
(20 -5.9866e-16 3.38151e-17)
(20 6.9604e-16 1.3419e-16)
(20 1.82074e-15 -2.92404e-16)
(20 7.18232e-16 -2.49185e-16)
(20 -7.27175e-16 -3.23838e-16)
(20 -9.10178e-16 -9.038e-17)
(20 -1.77934e-16 1.92497e-16)
(20 9.96702e-16 5.47658e-16)
(20 -3.46358e-16 7.47686e-17)
(20 -3.01462e-17 -1.42119e-16)
(20 2.53912e-16 3.16833e-16)
(20 3.4943e-16 -1.22855e-16)
(20 3.33267e-16 1.72209e-16)
(20 6.29263e-17 2.66908e-16)
(20 -1.99715e-16 -1.84456e-16)
(20 -5.17862e-16 -2.69492e-16)
(20 -2.17554e-16 -1.63786e-16)
(20 9.0391e-16 1.23454e-16)
(20 -1.63889e-17 -1.89549e-16)
(20 2.41909e-16 -4.29613e-16)
(20 -1.4929e-16 -4.43229e-18)
(20 -4.37193e-17 -1.86512e-16)
(20 2.49995e-16 3.80144e-16)
(20 4.99312e-16 -5.98985e-17)
(20 1.45096e-15 -2.03067e-16)
(20 4.95694e-16 6.52261e-16)
(20 -1.98171e-16 6.21685e-17)
(20 5.64278e-16 -2.63015e-17)
(20 1.37003e-15 1.78368e-16)
(20 7.63544e-16 2.25643e-16)
(20 -4.48247e-16 6.17014e-17)
(20 -7.88019e-17 -7.17665e-16)
(20 4.32963e-17 -4.85736e-17)
(20 -7.57458e-16 -8.63388e-17)
(20 -5.51204e-16 -1.60292e-16)
(20 -4.41145e-16 3.23343e-16)
(20 6.14781e-16 -1.10912e-16)
(20 3.26626e-16 2.1478e-16)
(20 -8.46858e-17 3.96594e-16)
(20 -5.89678e-17 -5.65568e-16)
(20 5.21997e-17 -1.78696e-16)
(20 2.09742e-16 5.09343e-16)
(20 -1.00922e-16 -1.692e-16)
(20 -7.38018e-16 1.22495e-16)
(20 -1.51378e-16 1.11257e-16)
(20 6.92555e-16 -1.855e-16)
(20 5.80942e-16 1.88353e-17)
(20 4.43364e-16 -6.30094e-17)
(20 1.14466e-16 9.77731e-17)
(20 -1.4286e-16 2.25042e-16)
(20 -8.31979e-16 -6.19329e-17)
(20 -4.56387e-16 -2.13907e-16)
(20 -1.58581e-16 4.14841e-17)
(20 -4.51003e-16 -4.54885e-17)
(20 -5.08274e-16 -4.0962e-17)
(20 -1.9082e-16 -1.91497e-16)
(20 5.37889e-17 -2.146e-16)
(20 -3.11232e-16 4.49586e-17)
(20 -1.91163e-17 2.43134e-16)
(20 -1.15779e-16 3.26197e-16)
(20 1.60267e-16 7.34212e-17)
(20 9.15641e-16 3.365e-16)
(20 7.56891e-16 -3.16723e-16)
(20 6.82494e-16 -2.73454e-16)
(20 -4.67298e-16 -2.85964e-16)
(20 -5.93594e-16 -4.20508e-16)
(20 2.3247e-16 9.37034e-17)
(20 7.8257e-16 3.02128e-16)
(20 2.50799e-16 3.33271e-16)
(20 -1.71449e-15 -1.16704e-17)
(20 -7.243e-16 -9.38394e-18)
(20 -4.33903e-16 -1.16613e-16)
(20 -1.44733e-16 -1.4066e-16)
(20 -2.32627e-16 2.60665e-16)
(20 7.71621e-16 -4.12533e-17)
(20 -4.05417e-16 -2.88445e-16)
(20 -6.98218e-18 6.49769e-17)
(20 -1.91073e-16 2.39334e-16)
(20 7.71494e-17 -8.07558e-17)
(20 -8.09969e-17 -1.16484e-16)
(20 2.61184e-16 1.25953e-16)
(20 2.82938e-16 -1e-16)
(20 8.30209e-16 6.2767e-16)
(20 -8.87792e-16 2.12223e-16)
(20 3.73676e-16 -4.9615e-16)
(20 1.30912e-15 3.15166e-16)
(20 8.47673e-16 8.79884e-17)
(20 5.93531e-16 4.11105e-17)
(20 6.76537e-16 -1.98804e-16)
(20 9.99835e-16 1.99566e-16)
(20 5.88785e-16 2.39292e-16)
(20 -6.01572e-16 -4.38424e-16)
(20 -4.53102e-16 -3.35219e-17)
(20 -1.01177e-15 7.02205e-17)
(20 -3.44663e-16 1.90389e-16)
(20 -2.91683e-16 -2.69553e-16)
(20 7.94075e-16 -4.10914e-16)
(20 6.56671e-16 1.00882e-16)
(20 2.23421e-16 3.40444e-16)
(20 -6.7762e-16 -3.96593e-16)
(20 -2.06111e-16 -8.10359e-17)
(20 7.41644e-16 3.75675e-16)
(20 -3.67694e-16 -2.21773e-16)
(20 -5.50196e-16 -4.8835e-17)
(20 2.95899e-16 1.82676e-16)
(20 1.482e-16 -2.52118e-16)
(20 9.73929e-17 2.64292e-16)
(20 3.16103e-18 1.77672e-16)
(20 -1.97794e-16 2.98141e-16)
(20 -9.38596e-17 1.85167e-16)
(20 1.36051e-17 -7.77976e-17)
(20 1.05555e-16 -2.34366e-16)
(20 -2.24341e-16 -3.1596e-16)
(20 -4.33415e-16 -1.05108e-16)
(20 -3.85409e-16 -8.15988e-17)
(20 -2.01682e-16 1.38953e-16)
(20 5.98453e-16 2.15713e-16)
(20 -4.74392e-16 1.68974e-16)
(20 -2.6476e-16 1.74222e-16)
(20 6.27042e-16 1.90603e-16)
(20 5.94466e-16 -3.38619e-16)
(20 1.50351e-15 1.62044e-16)
(20 -1.00229e-16 1.00616e-16)
(20 -5.81826e-16 -4.46146e-16)
(20 -5.97861e-16 -2.64493e-16)
(20 -6.27857e-16 -9.09811e-17)
(20 1.14799e-16 3.74365e-16)
(20 -3.97004e-16 -2.37074e-16)
(20 9.15986e-16 -6.48752e-17)
(20 -6.74127e-16 4.54023e-16)
(20 -1.3083e-15 4.3473e-16)
(20 -7.0318e-17 -3.51015e-16)
(20 3.72989e-16 3.79157e-17)
(20 2.8438e-16 -1.80548e-17)
(20 1.29122e-16 -1.03904e-16)
(20 -3.44952e-16 8.89683e-18)
(20 1.19296e-16 -4.02421e-17)
(20 5.65574e-16 1.63611e-17)
(20 1.3762e-16 -6.1872e-16)
(20 -8.68571e-17 -1.33624e-16)
(20 1.17652e-16 1.29932e-16)
(20 2.92583e-16 2.60424e-16)
(20 7.90779e-16 3.74263e-16)
(20 -3.12335e-16 2.04735e-16)
(20 -3.28752e-16 -3.05334e-16)
(20 1.10672e-15 1.54793e-17)
(20 1.06643e-15 -1.21499e-16)
(20 4.77072e-16 2.32314e-16)
(20 -4.90391e-16 3.21685e-16)
(20 7.59756e-16 -5.55257e-16)
(20 1.19526e-15 -1.74161e-16)
(20 -4.22712e-16 2.66238e-16)
(20 -1.61348e-15 4.28207e-17)
(20 -1.12717e-15 2.77844e-16)
(20 -1.24523e-16 -1.01561e-16)
(20 4.31646e-16 1.31598e-16)
(20 6.20315e-16 -2.99603e-17)
(20 6.71575e-16 5.53254e-17)
(20 4.61322e-16 2.8015e-16)
(20 -6.54859e-16 -4.67665e-16)
(20 5.32037e-17 1.07942e-16)
(20 6.08176e-16 -1.15267e-16)
(20 -3.22664e-16 -1.44375e-16)
(20 7.27604e-16 1.75894e-16)
(20 1.31958e-15 1.86718e-16)
(20 -1.94699e-16 -2.38082e-16)
(20 -4.97463e-16 -5.77387e-18)
(20 -5.79997e-16 3.61189e-16)
(20 -1.29332e-16 5.36061e-16)
(20 5.71661e-16 2.1735e-16)
(20 8.8401e-16 -3.52142e-16)
(20 1.34778e-16 -3.5671e-16)
(20 -1.01046e-15 -9.40567e-17)
(20 -4.16486e-16 7.01886e-17)
(20 -3.8902e-16 5.73982e-17)
(20 -4.82615e-16 -9.10214e-17)
(20 5.18374e-16 3.53432e-17)
(20 -2.30312e-16 4.4845e-16)
(20 -2.08623e-16 4.29969e-16)
(20 3.74757e-16 -1.195e-16)
(20 4.63802e-16 -3.03464e-16)
(20 1.10661e-15 -4.54032e-16)
(20 -5.23198e-16 1.07456e-16)
(20 -8.15996e-16 -3.72293e-17)
(20 -6.18123e-16 -1.86909e-17)
(20 -4.86003e-16 -4.32348e-19)
(20 1.42576e-16 7.83646e-17)
(20 -4.67121e-16 -6.95648e-18)
(20 9.42632e-16 2.10827e-17)
(20 4.7273e-16 -2.69615e-17)
(20 2.36107e-17 -1.14583e-16)
(20 5.37303e-16 -3.12473e-16)
(20 -1.24554e-15 1.38002e-16)
(20 -2.17971e-16 -2.82595e-17)
(20 3.47468e-16 -1.6781e-16)
(20 6.01069e-16 -6.80457e-17)
(20 -1.84905e-17 -2.18271e-16)
(20 -6.81856e-16 -2.56049e-16)
(20 -8.24603e-16 -4.3483e-16)
(20 7.63069e-16 2.13916e-16)
(20 -1.70172e-16 6.75809e-17)
(20 3.18464e-16 1.898e-16)
(20 2.67515e-17 1.76743e-16)
(20 4.97897e-16 -1.89898e-16)
(20 3.38208e-16 -2.45955e-17)
(20 9.87518e-16 2.05881e-16)
(20 3.56217e-16 -2.48e-16)
(20 1.59662e-16 1.51142e-16)
(20 -1.0392e-16 2.10854e-16)
(20 -1.27907e-16 -4.66131e-16)
(20 -1.28318e-17 -3.67411e-16)
(20 1.17839e-16 2.04517e-16)
(20 -9.42183e-16 2.5077e-16)
(20 5.83071e-16 5.87484e-16)
(20 -1.41494e-16 -2.92288e-16)
(20 2.05125e-16 -2.57103e-16)
(20 -3.02275e-16 -1.59331e-16)
(20 2.02135e-16 -1.64033e-16)
(20 6.6654e-16 1.8078e-16)
(20 6.41087e-16 -1.12275e-16)
(20 3.23766e-16 -2.88605e-16)
(20 -1.01594e-16 -1.93e-16)
(20 -5.09754e-16 5.66858e-17)
(20 1.36245e-15 -1.1657e-16)
(20 1.17206e-15 -9.59492e-17)
(20 -1.30647e-16 -1.69929e-16)
(20 -3.80734e-16 4.09731e-16)
(20 -1.5863e-16 4.82916e-16)
(20 1.05201e-15 2.41222e-16)
(20 8.47523e-16 3.16593e-17)
(20 -4.7601e-17 -7.20331e-16)
(20 -7.21851e-16 -3.0604e-16)
(20 -9.77575e-16 2.94098e-16)
(20 6.35598e-17 3.58259e-16)
(20 -1.99834e-16 8.21353e-17)
(20 -9.1291e-16 -1.54148e-17)
(20 -6.90552e-16 -1.05969e-16)
(20 -1.1281e-16 8.32912e-16)
(20 -4.97823e-16 2.96207e-16)
(20 4.33662e-17 -3.87188e-17)
(20 1.02553e-16 -2.22419e-16)
(20 2.67861e-16 -2.63752e-16)
(20 -5.00169e-16 1.22874e-16)
(20 -6.45067e-16 3.69326e-16)
(20 2.2971e-17 5.20003e-17)
(20 -2.39746e-16 -1.76571e-16)
(20 6.96376e-17 -1.36043e-16)
(20 5.58923e-16 -1.21541e-16)
(20 8.96651e-16 -7.16175e-17)
(20 -6.47741e-17 1.22493e-16)
(20 -2.94993e-16 -4.32782e-16)
(20 1.59439e-16 4.25809e-16)
(20 -3.26461e-16 -9.87815e-17)
(20 8.28213e-16 6.13433e-17)
(20 7.08273e-16 -2.50611e-16)
(20 2.97831e-16 1.91366e-16)
(20 -6.67046e-16 -3.14168e-16)
(20 1.80508e-16 -3.78662e-16)
(20 5.87771e-17 1.51249e-16)
(20 1.05354e-15 -2.76459e-16)
(20 3.69424e-16 1.48336e-16)
(20 5.6595e-16 2.92405e-16)
(20 -3.69895e-16 5.09274e-16)
(20 4.43631e-16 -2.14033e-16)
(20 6.27263e-16 -8.09108e-16)
(20 4.1171e-16 -7.56408e-17)
(20 -6.36134e-16 -5.52547e-17)
(20 -3.30683e-16 -4.01056e-17)
(20 1.58789e-16 2.81943e-16)
(20 -6.79851e-17 1.26514e-16)
(20 -3.75768e-16 -3.39494e-16)
(20 -3.43107e-18 -9.01748e-17)
(20 2.6509e-16 -2.01445e-16)
(20 1.41244e-15 -5.46357e-17)
(20 -1.48973e-16 3.55538e-16)
(20 -4.54483e-16 2.41916e-16)
(20 -9.76433e-16 6.57323e-17)
(20 -4.86108e-16 -2.98001e-16)
(20 4.0502e-16 -1.27533e-16)
(20 8.96592e-16 -1.74878e-16)
(20 2.6887e-17 -4.5019e-16)
(20 1.97473e-16 3.97507e-17)
(20 1.56575e-16 4.63433e-16)
(20 7.26332e-16 1.47179e-16)
(20 -4.32888e-16 -4.37405e-16)
(20 -1.96067e-16 -7.79881e-17)
(20 8.70902e-16 5.52623e-16)
(20 6.63277e-16 2.80604e-16)
(20 7.2797e-16 -3.90774e-16)
(20 -1.68471e-16 -3.73982e-16)
(20 -1.15763e-15 -1.6997e-16)
(20 -7.05675e-16 -2.83238e-16)
(20 -2.41768e-16 2.62057e-16)
(20 4.57677e-16 1.80021e-16)
(20 3.49288e-16 4.37332e-17)
(20 -6.90658e-16 4.62471e-16)
(20 -1.2785e-15 3.3998e-16)
(20 3.40164e-16 1.942e-16)
(20 -6.73392e-16 3.55186e-16)
(20 -7.19153e-17 -1.42009e-16)
(20 -2.27142e-16 -1.83281e-16)
(20 -7.36056e-16 -3.95686e-16)
(20 -4.47763e-16 7.13809e-17)
(20 8.93159e-18 2.48333e-16)
(20 7.77529e-16 1.71855e-16)
(20 -7.95671e-17 -8.78038e-17)
(20 9.2123e-18 -1.32192e-17)
(20 6.427e-16 -3.73552e-16)
(20 -1.70345e-16 -3.6866e-16)
(20 -3.59881e-17 -5.29654e-17)
(20 4.90755e-16 -3.727e-16)
(20 9.04394e-16 1.37874e-16)
(20 1.70885e-16 -5.52018e-16)
(20 -9.30955e-16 -7.37112e-17)
(20 -4.09641e-16 4.66999e-16)
(20 -4.51662e-16 5.82921e-17)
(20 9.60714e-17 3.73114e-16)
(20 -1.75262e-17 -3.41413e-16)
(20 2.95819e-16 1.62216e-16)
(20 2.01118e-16 1.04342e-16)
(20 3.1471e-16 -1.70885e-16)
(20 -9.86905e-17 -6.25424e-17)
(20 -6.90765e-16 2.72518e-16)
(20 1.18979e-16 -3.80487e-16)
(20 2.50943e-16 -5.47535e-16)
(20 1.52794e-16 -2.63784e-16)
(20 -4.41742e-16 2.54334e-16)
(20 -1.12571e-16 1.62479e-16)
(20 4.60009e-16 5.30244e-17)
(20 5.59453e-17 -6.14155e-17)
(20 -8.24823e-16 -2.6034e-16)
(20 -1.80928e-16 7.01988e-17)
(20 8.59955e-16 3.14146e-16)
(20 3.22636e-16 -2.70983e-16)
(20 -3.60206e-16 3.1938e-16)
(20 -9.55493e-17 3.12309e-16)
(20 -3.11026e-16 2.55153e-16)
(20 -5.36317e-16 -7.33769e-17)
(20 -7.8072e-16 -1.63046e-16)
(20 8.77424e-17 -7.86098e-17)
(20 5.21967e-17 -1.43065e-16)
(20 3.0437e-16 -7.77872e-17)
(20 4.33178e-16 -8.64179e-18)
(20 4.05106e-16 4.56323e-17)
(20 -7.143e-16 9.11176e-17)
(20 8.61365e-18 4.91986e-17)
(20 1.00532e-15 -7.33041e-17)
(20 8.43178e-16 -1.3236e-16)
(20 -2.38925e-16 -2.64442e-16)
(20 -5.14751e-16 -1.83125e-16)
(20 -6.2014e-16 4.92125e-16)
(20 -2.88151e-16 6.6749e-18)
(20 -1.27797e-16 1.45406e-16)
(20 -3.98794e-17 -1.4693e-16)
(20 2.28662e-17 -3.30162e-16)
(20 -2.27728e-16 2.97463e-16)
(20 -4.44436e-16 4.90471e-16)
(20 5.15305e-16 4.16436e-16)
(20 3.05468e-16 3.24801e-16)
(20 2.18364e-16 -6.69395e-17)
(20 1.10346e-17 -3.40364e-17)
(20 -1.45296e-15 1.96284e-16)
(20 -6.19544e-16 2.55727e-16)
(20 5.30803e-16 -4.85325e-16)
(20 8.02939e-16 5.45341e-17)
(20 2.05725e-16 -1.90395e-16)
(20 -1.73888e-16 -3.51186e-16)
(20 2.46906e-17 -1.7401e-16)
(20 9.226e-17 6.6053e-17)
(20 -7.61061e-16 -2.05088e-16)
(20 -3.96616e-16 -3.85733e-16)
(20 4.89181e-16 1.81495e-16)
(20 -2.1702e-16 1.7819e-16)
(20 5.45842e-17 5.49794e-16)
(20 -6.24661e-16 8.9916e-17)
(20 9.06385e-16 -6.56415e-17)
(20 6.6752e-16 -3.64905e-16)
(20 -7.63209e-16 1.85662e-16)
(20 2.8239e-16 2.57051e-16)
(20 1.76561e-17 -1.86499e-16)
(20 5.35382e-16 3.76717e-18)
(20 -2.66743e-16 2.4548e-16)
(20 -9.89756e-16 5.1146e-16)
(20 -1.07828e-15 -2.84057e-18)
(20 4.94799e-17 -4.96325e-16)
(20 3.34143e-16 -3.58149e-16)
(20 3.97457e-16 3.60846e-17)
(20 -4.68016e-16 -1.62855e-16)
(20 1.96575e-16 -1.65759e-16)
(20 1.93057e-16 1.28193e-16)
(20 -9.6426e-16 2.52665e-16)
(20 -4.23592e-16 2.36873e-17)
(20 1.3785e-15 1.87038e-16)
(20 3.08059e-16 2.4006e-16)
(20 -1.94973e-16 2.80881e-16)
(20 -8.97682e-16 2.09737e-16)
(20 -3.12643e-16 -7.71419e-17)
(20 -7.03405e-17 -3.73483e-16)
(20 -1.35451e-16 5.63755e-16)
(20 8.69365e-16 2.13198e-16)
(20 8.15563e-16 -2.58676e-17)
(20 -1.04614e-16 7.85804e-17)
(20 -7.67689e-17 2.41832e-16)
(20 3.79925e-17 -9.27384e-18)
(20 4.3983e-17 1.29773e-16)
(20 5.20646e-16 -1.74307e-16)
(20 4.77954e-16 -3.50145e-16)
(20 3.00711e-16 -1.07673e-17)
(20 -3.71624e-16 -4.76915e-17)
(20 -4.12784e-16 6.04588e-17)
(20 -2.60511e-16 2.17879e-17)
(20 -3.97134e-16 -2.2516e-16)
(20 8.19336e-17 1.59363e-16)
(20 -1.75509e-16 -4.13813e-17)
(20 -3.16815e-16 4.20214e-17)
(20 1.20846e-16 2.72086e-16)
(20 2.94141e-16 -8.52482e-18)
(20 1.12117e-15 3.66727e-16)
(20 1.42333e-15 3.24256e-16)
(20 4.30244e-16 -2.87689e-16)
(20 8.30888e-17 1.48916e-16)
(20 -9.54378e-16 4.74794e-16)
(20 2.00964e-16 4.32855e-16)
(20 5.73353e-16 -5.63568e-16)
(20 6.33992e-16 -2.11914e-16)
(20 4.30408e-17 -6.15278e-17)
(20 -5.35387e-16 -3.98281e-16)
(20 -9.2463e-16 -1.5036e-16)
(20 2.19514e-16 -7.43913e-16)
(20 -1.42983e-15 7.19633e-17)
(20 5.8275e-16 3.14961e-17)
(20 -9.26551e-17 6.09948e-17)
(20 -2.91644e-16 5.78147e-16)
(20 -7.81263e-17 6.98617e-16)
(20 -4.03501e-17 -2.97993e-16)
(20 -2.26979e-16 -4.49873e-16)
(20 2.47986e-16 -3.5183e-16)
(20 -7.91874e-16 -4.00918e-16)
(20 5.65157e-16 9.34755e-18)
(20 -2.07298e-16 1.14514e-16)
(20 2.92999e-16 -1.34259e-16)
(20 4.53371e-17 1.93867e-16)
(20 -4.79303e-16 3.67668e-16)
(20 -8.66636e-16 5.13341e-16)
(20 -3.81876e-16 -4.70294e-16)
(20 1.62048e-16 4.84017e-17)
(20 6.66947e-16 -6.51573e-17)
(20 -5.22954e-16 1.02291e-16)
(20 4.53647e-16 -9.21151e-17)
(20 7.45837e-16 1.57858e-16)
(20 -8.25527e-16 9.41107e-17)
(20 -4.93788e-16 -3.38708e-17)
(20 1.14422e-15 -1.05865e-16)
(20 7.98031e-16 -1.07322e-16)
(20 2.13995e-16 2.23748e-16)
(20 -4.02912e-16 5.07095e-16)
(20 -6.04365e-16 1.12828e-16)
(20 -4.73297e-16 4.48923e-17)
(20 4.70486e-16 4.96488e-17)
(20 8.42686e-16 -1.93343e-16)
(20 6.64724e-16 -3.75764e-16)
(20 3.20869e-16 5.44917e-17)
(20 6.3812e-16 3.49576e-16)
(20 2.24234e-16 2.70439e-16)
(20 2.37629e-16 1.83567e-16)
(20 -2.85932e-18 -3.56759e-16)
(20 -1.08807e-16 -2.79448e-16)
(20 -3.10325e-16 -3.38478e-17)
(20 -1.64211e-16 3.00612e-16)
(20 3.24676e-16 3.77269e-16)
(20 3.05778e-17 -8.61111e-17)
(20 -6.83359e-16 -4.68739e-16)
(20 -7.08964e-17 -1.50761e-16)
(20 -1.24526e-16 1.05144e-16)
(20 -4.18205e-16 1.71131e-16)
(20 8.80211e-17 1.8195e-16)
(20 3.32407e-16 2.07665e-17)
(20 7.10767e-16 2.18102e-16)
(20 1.04268e-15 6.62374e-17)
(20 -1.35871e-16 -2.11779e-16)
(20 6.33351e-17 2.61444e-16)
(20 -2.50631e-16 4.52775e-16)
(20 -7.79472e-17 -5.56141e-17)
(20 1.0464e-16 -3.71106e-16)
(20 3.53941e-16 -5.79643e-16)
(20 4.71314e-16 -6.88472e-17)
(20 -8.8601e-16 -5.04462e-16)
(20 -7.85041e-16 -1.91247e-16)
(20 -3.4143e-16 -1.30201e-16)
(20 -5.78419e-16 2.91167e-16)
(20 6.5975e-16 -1.23842e-16)
(20 2.88393e-16 -1.44634e-16)
(20 -3.6148e-17 3.91061e-16)
(20 -6.74233e-16 5.41565e-16)
(20 -9.26628e-16 -2.5278e-16)
(20 4.76433e-16 -3.59281e-16)
(20 2.25864e-16 -3.98329e-16)
(20 3.79254e-16 -1.7026e-18)
(20 6.76405e-16 -1.80437e-16)
(20 -1.85369e-16 1.11745e-16)
(20 -1.06358e-15 7.1041e-17)
(20 -1.46643e-16 3.74742e-16)
(20 -2.99991e-16 1.31122e-16)
(20 4.97276e-18 2.72723e-16)
(20 -2.78516e-16 -4.24911e-16)
(20 -3.05815e-16 -2.82682e-16)
(20 3.5786e-17 -1.61491e-16)
(20 -1.77216e-16 -1.25603e-17)
(20 1.21935e-15 2.7467e-16)
(20 8.02729e-16 -2.40835e-16)
(20 -7.31168e-16 4.29354e-16)
(20 -1.85203e-16 1.63295e-17)
(20 4.87469e-16 -4.47125e-16)
(20 2.74326e-16 -9.24329e-17)
(20 2.26583e-16 3.32021e-16)
(20 5.02631e-16 2.35082e-16)
(20 -3.08819e-16 9.21e-18)
(20 -6.15518e-16 -2.1757e-17)
(20 -2.0824e-16 9.80297e-17)
(20 -2.5754e-16 3.99486e-17)
(20 -1.18631e-17 -1.39747e-16)
(20 5.16705e-16 6.44872e-17)
(20 8.5619e-16 -2.89975e-17)
(20 3.65645e-16 1.19244e-17)
(20 3.63788e-16 6.44186e-17)
(20 -6.63729e-17 -2.98474e-17)
(20 -4.74298e-16 3.33952e-17)
(20 -4.85832e-16 2.05911e-16)
(20 1.77941e-16 -8.50259e-17)
(20 9.15984e-16 -2.81442e-17)
(20 9.65597e-16 -1.51492e-16)
(20 -5.95008e-16 -9.70364e-17)
(20 -8.55001e-16 1.3254e-16)
(20 -5.72767e-16 -1.00514e-16)
(20 -4.04168e-16 -1.7197e-17)
(20 -2.71014e-16 2.8063e-16)
(20 -1.3975e-16 2.06806e-16)
(20 -2.91312e-16 7.36765e-17)
(20 8.83015e-17 2.49171e-16)
(20 -6.55787e-17 1.46979e-16)
(20 2.42345e-16 4.51397e-16)
(20 5.21787e-16 3.56513e-16)
(20 -1.05566e-15 7.65071e-17)
(20 -5.44751e-16 -2.36737e-16)
(20 4.49397e-18 -5.78049e-16)
(20 9.00078e-16 -3.22925e-16)
(20 1.70397e-16 -7.25815e-17)
(20 -3.40885e-17 -2.0195e-16)
(20 -7.31042e-16 -3.99012e-16)
(20 6.13007e-16 6.0784e-16)
(20 -4.87159e-16 -2.25613e-16)
(20 4.75593e-16 -1.86366e-16)
(20 4.06747e-16 1.53707e-16)
(20 -3.92009e-16 3.66961e-16)
(20 1.22804e-16 6.77272e-16)
(20 -3.40153e-17 -6.13337e-16)
(20 -9.26067e-17 -2.75727e-16)
(20 6.35426e-16 -5.16891e-17)
(20 1.61727e-17 7.78006e-17)
(20 1.88969e-17 -3.61266e-17)
(20 -1.13771e-15 1.59285e-16)
(20 -2.91214e-17 2.57797e-16)