/*--------------------------------*- C++ -*----------------------------------*\
| =========                 |                                                 |
| \\      /  F ield         | OpenFOAM: The Open Source CFD Toolbox           |
|  \\    /   O peration     | Version:  2312                                  |
|   \\  /    A nd           | Website:  www.openfoam.com                      |
|    \\/     M anipulation  |                                                 |
\*---------------------------------------------------------------------------*/
FoamFile
{
    version     2.0;
    format      ascii;
    arch        "LSB;label=32;scalar=64";
    class       volScalarField;
    location    "1000";
    object      k;
}
// * * * * * * * * * * * * * * * * * * * * * * * * * * * * * * * * * * * * * //

dimensions      [0 2 -2 0 0 0 0];

internalField   nonuniform List<scalar> 
162506
(
0.0150874384780588
0.0150914169920368
0.0162984835449264
0.0164061577767627
0.0167317962345683
0.0165728459034534
0.0151721385729929
0.0151278936083781
0.016431137337066
0.0158106850477033
0.0153535826308461
0.0150314499975416
0.0150685530662244
0.0150490511100477
0.0150132786216718
0.0150111129541722
0.0153245830237047
0.0157351452529315
0.0150449000750297
0.0150920088664612
0.015056120561733
0.015341203347023
0.0157499525124585
0.0158004576583108
0.0153758461670108
0.0153291032456067
0.0158118069005298
0.0150103030802621
0.0157516776571911
0.0153092747558262
0.0150027631817472
0.0150029869471759
0.0150132934804778
0.0150007569826641
0.0149985327275337
0.0149980729711779
0.015302772117847
0.0157509026763226
0.0150006769783342
0.0150757607925293
0.016285480107908
0.0162868553872337
0.0150717899078045
0.0151160568575745
0.0169421918438573
0.0169512055054921
0.0151187283890489
0.0152570870274597
0.0173879868465237
0.0177210761915
0.0171052302321517
0.017891213041123
0.018873282543585
0.0183098437261792
0.0153536628102633
0.0153030189464966
0.0179965983534295
0.0171592100997397
0.0152291550574263
0.015334620636947
0.0172187165610538
0.0164794369355748
0.015176932370135
0.0150524435866144
0.0150163648522955
0.015348405780564
0.015868189447626
0.0158296424253699
0.0153008631833605
0.015008052754039
0.0150285244051793
0.0150161664993591
0.0150051477528033
0.015010621325924
0.0150288331162657
0.0150320618963404
0.015075565713717
0.0150740608836089
0.0151496118602645
0.0164186908005432
0.0164364999264679
0.0150885536913359
0.0150133181220673
0.0150029099469932
0.0152981225739606
0.0158259488718641
0.0159353881986078
0.0153536403283395
0.0150018576820016
0.0150105530962552
0.0150023459534234
0.0150017028332401
0.0150002017161024
0.0150016842155364
0.015005620089757
0.0150010575875893
0.0149989928225782
0.0149990697849032
0.0149995974152234
0.0149992870142034
0.0149990336037158
0.0150012856071132
0.015001093037132
0.0157505481480856
0.0153026016380378
0.0149986578612018
0.0150033828681139
0.0153088191301391
0.0157507506007501
0.0150109396012342
0.0150707144776598
0.016284884105131
0.0162846431599543
0.0150740093558379
0.0151145599771445
0.0169491025728988
0.0169507425192155
0.0151214084537218
0.0151609753008094
0.0177427046899306
0.0177086232537998
0.01516096731293
0.0151559731300222
0.0176894524853475
0.018515511458667
0.0154778389601521
0.0157733371663414
0.019327130681227
0.0201357519918059
0.0187404911559367
0.0197544392103523
0.0212819287106459
0.0206036820981287
0.0166404254001925
0.0160703082299005
0.0201731846926752
0.0189447467551376
0.0155807438502165
0.0154594993783654
0.0192316957853463
0.0181480284592282
0.0153564344961322
0.0153190980715623
0.0180739321491182
0.0171542758046785
0.0152749542545639
0.0151438167991587
0.0171857339805854
0.0174783206014427
0.0153348829444109
0.0151510227977573
0.0166207399963704
0.0166981201501443
0.0151203415004458
0.0150080613971959
0.0150015650841416
0.0153820114973635
0.0159814351027513
0.0159210453938145
0.0153476059786054
0.0149991339904972
0.0150044512686779
0.0149999921823997
0.0149998033488998
0.0149990192833442
0.0149973539305135
0.0149981376646022
0.0149992995566917
0.0150004425094033
0.0150013925868016
0.0150060236767648
0.0150015113935792
0.0150035950969452
0.0150140268564439
0.0150497370596782
0.0150141281936644
0.0150119431667173
0.0153238174823545
0.0157333457933239
0.0150455776893041
0.0150882395697718
0.0162948721398469
0.0169447244775944
0.0151167611520788
0.0151124749987707
0.0169381688134229
0.0177001624847048
0.0151561130366676
0.0151529468045064
0.0177391650390034
0.018663797049613
0.0153745897247581
0.0153852963560936
0.0186716595822311
0.0185900406202349
0.0154163364479566
0.0160095460273189
0.0197382722013284
0.0195753778976444
0.0160847906461453
0.016279155714392
0.0199770356780875
0.0209295887898058
0.0172501597374406
0.0174642263920205
0.0213908157404457
0.0215299952535986
0.0172733197166374
0.0165755812485337
0.0205513219319056
0.0214114886784753
0.0167620482595086
0.017359787479204
0.0228682373758388
0.0248019461738629
0.0179857249081874
0.0186079399942476
0.0246888748351494
0.0251687331125278
0.029017056635911
0.0266328001915961
0.019263946533944
0.019059418329084
0.0264464538548399
0.0258197607367142
0.0188988526964933
0.0186103751564626
0.0233789386602788
0.0263198211991506
0.0251223336093866
0.023456368551877
0.0178163745226393
0.021878290239393
0.0241517507020672
0.0228177249448688
0.0208574225561322
0.0173613724046066
0.0224802481151455
0.0223282658642549
0.017029888910404
0.0162415723752461
0.0220603991870528
0.0205338477381552
0.0157262116260737
0.0154751476355
0.0204120752833064
0.0191503083229952
0.0153652919601781
0.0152162397491255
0.0191479062800051
0.0180896398285639
0.0151791137838839
0.0154001353457141
0.0185889696342617
0.01868430600726
0.0154149075610039
0.0153323211004378
0.0175659468045616
0.0173564395705667
0.0151140825543992
0.015045916643946
0.0165890938967138
0.0165844093627749
0.0150512520520635
0.0150065867830934
0.0159179875090869
0.0153470335839651
0.0150000941004459
0.0150001576213238
0.0150015703075297
0.0150065624458785
0.0150010104208427
0.0150022384612991
0.0150047766930127
0.0159757601185916
0.0153804536087105
0.0153517583075626
0.0150004189521642
0.0150096506370202
0.0159306628373297
0.0166115378830339
0.0151527094723247
0.0150890385172991
0.0164278972328603
0.01641361571748
0.0151510020589391
0.0150280517592238
0.0150086076356981
0.0152998121232004
0.0158276028350997
0.0158213279683735
0.01529689233408
0.0150033696856667
0.0150136346441804
0.0158641267252719
0.0150517619404902
0.0150157869916012
0.0153471398100908
0.0153527039840215
0.0150309246479385
0.0150675199481126
0.0157898277693226
0.0164049934267237
0.0151417077459374
0.015242710126713
0.0164323692256157
0.0166318912681689
0.0164490099820691
0.0157543625832874
0.0153310145070911
0.0150325459150883
0.0150695412741331
0.0157621256232239
0.0153310696205222
0.0153751731139614
0.0157680018263786
0.0172587870384621
0.0176110768152084
0.0171293883096017
0.0153430257020449
0.0152483001557945
0.0171287195060009
0.0179579923913873
0.0153268998630845
0.0154393772533553
0.0179093230250678
0.0187463971121815
0.0181667085311369
0.0192067962815166
0.0199514309044886
0.0187478893704459
0.0159051953274002
0.0154942588468107
0.0184965221794678
0.0185731586801508
0.0154064462922568
0.0159948037807776
0.0196867484656334
0.0198426150150731
0.0159388596400791
0.0159496074368921
0.0198637931605816
0.0217735332042445
0.0168017920391903
0.0174223751764248
0.0232503587146341
0.0255984416087912
0.0178680973577163
0.0177950733593192
0.0249948671868908
0.0277449024429829
0.0192015312677824
0.0193824395338351
0.0272002606275734
0.026526738196251
0.0195650308226675
0.0193423223215156
0.0284008741643541
0.0325050190401078
0.0274061655716094
0.0297490011550067
0.035777249993064
0.0303549653638399
0.0198055103697267
0.0193351388650252
0.0298746722360129
0.0279417777692182
0.0192183233243654
0.0190447482941434
0.026717301893566
0.0253636712007913
0.018572673751656
0.0180212241128501
0.0236290812946211
0.0232633565275619
0.0173841219120877
0.0172257152562208
0.024484889870397
0.023953007311136
0.0168207984014316
0.0158353293945301
0.0219187505572443
0.0218219236589615
0.0155143530395764
0.0152822028126114
0.020379014001944
0.0215500802741568
0.0155261084811902
0.0154627477199881
0.0199338628135566
0.020032840660784
0.015488863129083
0.0152221079343047
0.0193160344710721
0.0182610220331154
0.0151697872974356
0.0151752833418002
0.0182537683908157
0.017351051250247
0.0151195109917737
0.0153352796017155
0.0175537194616548
0.0166888425007106
0.0151252784797812
0.0150475510860506
0.0150072242330807
0.0150113888597869
0.0150051955196339
0.0150040787058222
0.0150039363027077
0.0150020941583388
0.0150443720971303
0.0150230537328431
0.0150544965196884
0.0153358147746484
0.0174643465495322
0.0171728951206635
0.0151411011343399
0.015275959256229
0.0171447701868598
0.0172068346890217
0.0153372621400938
0.0153622040969636
0.0181292465636656
0.0192001084203216
0.0154765899933192
0.0156204603694828
0.0189001050810919
0.0201119967342844
0.0161503594887451
0.016715998545874
0.0197598059147728
0.0210513170720731
0.0204362287447414
0.0222383650447754
0.0225475978878084
0.0208759151682567
0.0174712157724403
0.0173139060723547
0.0208576535851218
0.0199129105982233
0.0162678112562198
0.0165699220866955
0.0204830434353181
0.0213622611947804
0.0173856141636083
0.0175366312689534
0.0212831319533777
0.0218425460345274
0.0178843481083199
0.0233642329062895
0.0238260870834162
0.0259617083980544
0.0233869383280023
0.0188735734416757
0.0249825712107205
0.0259601619597267
0.0193759896775917
0.019705303265885
0.0266003913350074
0.0262509356712152
0.0277919033632373
0.025035255093722
0.0199078700234665
0.0191453428032159
0.024445079642656
0.0246513689465177
0.018498926403768
0.0180747224010573
0.0248511052479956
0.0255004315883736
0.0179941487522075
0.0178872240519057
0.0256343004589496
0.0257125705356372
0.0178795660870648
0.0194849128714331
0.028797229365164
0.0285716305810971
0.0194427483998443
0.0207607629924843
0.0306557554803545
0.0297619033624255
0.0204687946174483
0.020339060472686
0.0296187131048409
0.0288374206029898
0.0203686296432802
0.0199481735350235
0.028454366051125
0.0294751048244474
0.0204635192486873
0.021195045276782
0.0333764262190733
0.0325848290383213
0.0397630026357201
0.0323805766154937
0.0201644313102662
0.0194863090261072
0.0318903797882555
0.0312185268460849
0.0192936739664013
0.0189951066789231
0.0294604838102125
0.0273259333166023
0.0188778115078757
0.0179839476299786
0.0261949013668415
0.0248832494836285
0.0176793279890085
0.0168146069354856
0.0160754847089993
0.0154545773883642
0.0155063862374213
0.0157025651693796
0.0164471978327972
0.0240438146441999
0.0256185048928086
0.0165369019340089
0.0164867614926002
0.025293917176995
0.0248925297817663
0.0166458689903046
0.0166027276075144
0.0246070248653251
0.0252966090945238
0.0175138643208762
0.0174567133470546
0.0255174794873958
0.0259255595290737
0.0174758004294628
0.0180518878063444
0.0264804239225684
0.0260116764910063
0.0181220413444368
0.0173173306588895
0.0246177162346703
0.0167209718319838
0.0185780262163687
0.0276980202687072
0.0295080838167173
0.0195213387346573
0.0190338490219566
0.0285416501920365
0.0273943014445469
0.017788540761699
0.0167503175510157
0.0282874308655406
0.0307793940383701
0.0163269432654156
0.0162197744435575
0.0281167362769241
0.0256235441852233
0.0160800207854955
0.0156151297607551
0.0234648127187278
0.0235578067500153
0.0156432674526727
0.0155555688004831
0.0216481061902607
0.0205351975092761
0.0152732244519103
0.0152784689136206
0.020519599125781
0.01930563520525
0.0152277498073548
0.0154878104671372
0.0199975333974845
0.0186644811406797
0.0154168603463466
0.0153956772218526
0.0185668871001045
0.0180698103317942
0.0151682931822996
0.0153179640579606
0.018056457880886
0.0191197214954891
0.0153593045066965
0.015456980799733
0.0203616665826168
0.0204823936174225
0.0158014573805225
0.016348066522524
0.0220343094469778
0.0222552349218263
0.0171528153972499
0.0181996953860548
0.0236994700366217
0.0251536680693808
0.0190977635050144
0.0196244373255172
0.0275206694533187
0.0282754470125791
0.0199961226198392
0.0198438818220141
0.0271624178081174
0.0282944422261932
0.0208003009514245
0.020830664580789
0.0289295099058415
0.029153599163129
0.0202658787793142
0.0207800101231335
0.0308083513324025
0.0320604326471458
0.0371267228117207
0.0323589957930366
0.0225348727286221
0.0228269834476885
0.0320682135259011
0.0307447385304635
0.0223626468215849
0.0213940909154992
0.0291863078914625
0.0332557757815336
0.0296506587750614
0.0282650266975517
0.030863199522259
0.0274103996778696
0.0213041005869864
0.0208222434168195
0.0272707478836452
0.0273265292957141
0.02008913239979
0.0195524420309052
0.0277482303344383
0.0285465073333445
0.0195766431376086
0.019498704438063
0.0287407264654787
0.0309649835613676
0.0209330187758315
0.0209620603405765
0.0310378645360059
0.0309644874162674
0.0208573176633858
0.0208551357518673
0.0307302726850007
0.0339658369226757
0.0228336343916365
0.0226941500271393
0.0338456007041224
0.032895152021228
0.0223013971567154
0.0220335823141304
0.0325179723768704
0.0313465144475084
0.0214771528448013
0.0205905618484669
0.03048521031242
0.0325565800189982
0.0211745661408032
0.0214194594582872
0.035217920787554
0.0380341093180049
0.0216602518064715
0.021524209994148
0.0383277749929185
0.0356881730036387
0.0438685399247351
0.0344402370323463
0.0204831116361661
0.0196441002376937
0.0340498277816295
0.033850226426119
0.0194457808288992
0.0190917089152754
0.031773831292514
0.0301324342351543
0.0184917738189456
0.0182068909243721
0.0281046059448803
0.0171912236006395
0.0164980145956707
0.0162089665754158
0.0162998511243417
0.0157435663495334
0.0156687738392471
0.0156028276058981
0.0155606279079972
0.0153306443254753
0.0152787688776423
0.0155796253319147
0.025089647266101
0.023463969946104
0.0154393329866404
0.0153375276103601
0.021927397360528
0.0219030709909813
0.0153350813682115
0.0156238678489128
0.0234459544955687
0.021581677023428
0.0155560974039187
0.0154935919694014
0.0214793837613705
0.0203315693014781
0.0152520822178491
0.0155951304587105
0.0217356257419834
0.0218274555190682
0.0159745946824723
0.0170583694017809
0.0240196796658638
0.0245796244254069
0.0176643458947674
0.0174956393031744
0.0232196285401332
0.0250054240223927
0.0179216838510041
0.0187672517085647
0.0257188964005746
0.0283888515256878
0.0189356798249665
0.0200882069471653
0.0311464538112625
0.0320968927516785
0.0206814486306979
0.0228925366795635
0.0349043894206883
0.0399957711469952
0.0334744868097324
0.0353289628797213
0.0444300226585235
0.0387626361542979
0.0232286505071594
0.0240054673520366
0.0387738649069066
0.0359855603620114
0.0247583072104328
0.0245314262925654
0.0357364342285595
0.0371857033626092
0.0247764051840354
0.0255299056329584
0.0378643864345963
0.0380494735821641
0.0252062098937467
0.0254493582598822
0.0384530277053625
0.0400759846432987
0.0257825877863099
0.0257903894971111
0.0403097173430139
0.0409334864941167
0.0258383524665123
0.0258232907058658
0.0408640404283776
0.0406234158911764
0.0258211818791522
0.0256598550609383
0.040271276097053
0.0395153715869554
0.025467521338178
0.0251894769924847
0.0391900346235992
0.0385847252696631
0.0249060208878215
0.0237740916575673
0.0375414259070039
0.0347203101679467
0.0223598715663453
0.0227074948924792
0.0390261700376998
0.0439801497505225
0.0230636584513771
0.023492502558278
0.0506287341680952
0.0411904920303776
0.0218399241679984
0.0221186457218107
0.0451526231674236
0.0443637716856139
0.0218394632698366
0.020797071950883
0.0367268177576788
0.0487820829846481
0.0393403959536515
0.0431147207277782
0.0537896081279614
0.0395159096581047
0.0211021823829961
0.0200984374481539
0.03907344521425
0.0364305197394838
0.0197921819171912
0.0196484938257511
0.0367485696876181
0.0343385082585445
0.0192155240127228
0.018624541052902
0.0324402371826774
0.031755280099125
0.0192400697104995
0.0190258522685261
0.0294917016772373
0.0171752919935023
0.0174011009937395
0.016866067075401
0.0157772723742778
0.0158367242644173
0.0156464130711462
0.0160434657838412
0.0309697898768419
0.0282545990709986
0.0158910564811325
0.0157691816505085
0.0257857933287779
0.0153871035490762
0.0151976557968027
0.0151919543532856
0.0154380898537423
0.0233957089655171
0.0255821036013407
0.0157144547475821
0.0156973050579248
0.0255071756922482
0.023412356588065
0.0159670622310943
0.016455918271057
0.0259273785645005
0.0251553720595785
0.017271153854223
0.0178680816171344
0.0256115373767207
0.0261989311567354
0.0185438677210104
0.0181113676917894
0.0262498490980618
0.0269925104548515
0.0182037336043616
0.0184363222870687
0.029153696226422
0.0310290872126732
0.0191843289392727
0.0204273502296862
0.0348793695632914
0.0332487422641671
0.020823715763293
0.0209600409414359
0.035452470903362
0.0375530486380601
0.0484513883383792
0.0426672605350756
0.0235214706006534
0.0243902045183197
0.0436388549293169
0.0412226770466487
0.0259722597610327
0.0266321013690441
0.0417065602254418
0.0449855309648155
0.0267280089356335
0.0267398357456113
0.0462881802989996
0.0466992720155719
0.0268708502003978
0.0273779647397084
0.0487460219538962
0.0493055184369348
0.0271600265352246
0.0274747733409067
0.0506407645703715
0.0511919609356589
0.0276169511667422
0.0280094134239057
0.0527511778336893
0.0545377738811868
0.0281909650935896
0.0282382830479584
0.0552507323189588
0.055355013792804
0.0280873554994785
0.028371358380891
0.0558989157955135
0.0570360916948446
0.0283715998230636
0.0282831675120615
0.0570821186509818
0.0570172462694295
0.0283417578594482
0.0283480039343014
0.0567028692545533
0.0562792666245264
0.0284712612375238
0.0281873330053588
0.0554835718032107
0.0553132322016344
0.0282080003578344
0.0280638084933939
0.0542388568920443
0.0532824458629809
0.0280094099257736
0.0276484959929641
0.051830808723364
0.0512979816222138
0.0274724765988161
0.0271013101051423
0.049967983696213
0.0491095779575038
0.0269056422637268
0.0262898243319594
0.0473289738276665
0.0471908512907934
0.0260934794833558
0.0259773319691458
0.0417885409074491
0.0432811508928776
0.0265939293328155
0.0267559623040019
0.0436441466199304
0.0442593982246735
0.0271020592192769
0.0271936545593183
0.04427024675961
0.0450864492548502
0.0275592192672831
0.0275818243678959
0.0455806766948816
0.046248803130018
0.0277756173034587
0.0277195022204468
0.0462773897060677
0.0467547411553644
0.0279569360369049
0.027854270436227
0.0469098199929061
0.0471631544677319
0.0278711082604886
0.0278383052684141
0.0471534047894428
0.047092425727765
0.0278765546596548
0.027841878174477
0.0463596689615314
0.0460499795897673
0.0276507856109181
0.0278104762350978
0.0460365653442191
0.0455248986626625
0.0277061730101101
0.0274922728897317
0.0440530182608085
0.0431858165829
0.0271213318829669
0.0270587820529085
0.0430088775986857
0.0423877465126599
0.0267618040170517
0.0270873056190358
0.0422943599479426
0.0409180820726476
0.0265844147208963
0.0268263289825133
0.0228653192194758
0.0204831691725776
0.0179138402565832
0.0173707361895541
0.0166261799432319
0.0164762695010697
0.0159052622248975
0.0157882828427823
0.0157547659362208
0.0154965349066894
0.0154185093596077
0.015862171319245
0.0279424910187661
0.0281004172586302
0.015950054979674
0.0161468429281675
0.0309564914870286
0.0286631702322148
0.0167893787689574
0.0173486140918869
0.0284469833220164
0.0268332848032512
0.017199848055367
0.0182356955854896
0.0278494138469138
0.0285534071226501
0.0189507332693029
0.0184206739219293
0.0283361334847765
0.0305934707754755
0.0186093451170287
0.0186832010443454
0.0313474075723825
0.0338768087422574
0.0195247543432586
0.0210709619000996
0.0392680946361932
0.0374827072201981
0.02149439326065
0.0246658262061506
0.0403053302589472
0.0534844555680382
0.0468966580997532
0.0496492051906628
0.0248362673540037
0.0264239150356658
0.0481643926616458
0.0523027388773361
0.0271211589988586
0.0281842252976973
0.0556907158699397
0.0583929762061644
0.0282778578647904
0.0282629853466738
0.0620111842173593
0.063030547418616
0.0275909308952137
0.0282387869022517
0.0656811933028411
0.0667811347560835
0.0283234601035096
0.0288055847816997
0.0692576344231956
0.0707462438431652
0.029260244468523
0.029779984413479
0.0729040130930304
0.0744236773682752
0.0300752782231578
0.0302758116597144
0.0747823550917998
0.0750317844495539
0.0303523940280752
0.0308208864702028
0.0760553216029443
0.077905322649234
0.0307875575107298
0.030702525786823
0.0777598185556305
0.0775159985479651
0.0307986071836557
0.030703364387826
0.0772633995421147
0.07654723670171
0.0307686506332593
0.0303591868372792
0.0755644304169549
0.0754327402719794
0.0300960415843101
0.0297841047688226
0.0746122372523426
0.0733330750765475
0.0295178145720777
0.0290752557179918
0.0711300612101591
0.0690093603890687
0.0286269003467967
0.028081096478085
0.0665014209253121
0.0658177737929365
0.0277179247101834
0.0270064067722011
0.0645376533278424
0.0568798008443023
0.0259461336191713
0.0256925387888926
0.0509716200026116
0.0454901330074048
0.0242391509099055
0.0247457930664957
0.0548930114885458
0.0675592677682649
0.0252618136925863
0.025829755355475
0.0867903655040029
0.0591957763168632
0.0239151789793544
0.0243377645881527
0.0713303254817343
0.0490416359297198
0.0222668856056248
0.0225039098713272
0.0548299703033347
0.0520993588658904
0.0220973233137937
0.0223391500332256
0.0617735567793091
0.0483953668643292
0.0598750905854695
0.0429828246916638
0.0233069862527756
0.0218671238921332
0.0419952254090212
0.0433374395506028
0.021535704901991
0.0203270781528365
0.0412120085392301
0.0373052880652812
0.0193456946550402
0.0187374910525031
0.0350423090940876
0.0342977636887725
0.0193164321039629
0.0197841428210418
0.0350900200579937
0.0321351489362612
0.0197579378787053
0.0191690909132921
0.0310839033261081
0.0289888558879892
0.0176046405325502
0.0176598272455619
0.030699183459088
0.0314618203713017
0.0172930037598119
0.0174453951745429
0.0342375596954857
0.0342408590007855
0.0162300016863812
0.0158440141224612
0.0289010541687927
0.0268217953223259
0.0157262781736207
0.015726968836449
0.0266773709002674
0.0249730240394042
0.0155783095685381
0.0152760800412121
0.0153773560463555
0.0155503581080165
0.0160449903469536
0.0305893080526108
0.0338457492164897
0.0163104160339303
0.0175233295741887
0.0342723399524341
0.0317819509136289
0.0174972058861826
0.0174373780632755
0.0315693782054986
0.0298415276410821
0.0173229513913193
0.018518649297211
0.0329240483068693
0.0303371374701807
0.0183897325377843
0.0191053552762405
0.0312271246180125
0.0341820549260223
0.0192159456851077
0.0187781680582645
0.0330337562235913
0.0337801303294576
0.0189027168266927
0.0198505473228582
0.0371128641104467
0.0442191842023599
0.0214189622961973
0.0217952559300367
0.0424337220182717
0.0475209565281788
0.0675399451142996
0.0574472920866048
0.0254111652309334
0.0256049118875219
0.0661075292240661
0.0699372781973884
0.0273256349590598
0.0280491659001188
0.0887288410579808
0.096890126121739
0.0289179353814602
0.0324288056234624
0.135627444578114
0.136490822181369
0.032619324057613
0.0339547493808194
0.142823715089049
0.156372652844637
0.0381100274156985
0.044489705644757
0.156091887150433
0.179390457578163
0.0495207403794447
0.0505802084477676
0.187606639173465
0.191788135685494
0.0503055893223672
0.0494563535315779
0.192281020654362
0.193069200086091
0.0495929366691654
0.0492213273595457
0.191467050309877
0.190559762970769
0.0497013935768065
0.0492968472503649
0.187918549862373
0.187388556738092
0.0497469352139741
0.0494208933252318
0.184718380195816
0.185258703958636
0.0499096545300606
0.0496409069260918
0.183880826278488
0.185874642179455
0.0502472838075217
0.0503174256522507
0.186132000726547
0.188876033081041
0.0508985152084053
0.0506375696206469
0.192953988289856
0.194374008151532
0.0506675855824497
0.0503937796428454
0.192456555879113
0.191625635087097
0.0505670996766798
0.0508912765719013
0.191469493516428
0.190524812815721
0.0504745546363037
0.0506884725741365
0.192355114734542
0.190732822745297
0.0502755486248472
0.0508360115756185
0.191881560845279
0.190183834599078
0.0503214615533255
0.0504618521263997
0.190876913494508
0.189827358862637
0.0499225875227642
0.0502378831123407
0.192084499855143
0.192380670168787
0.0497721210330298
0.0501563494116357
0.19571036492895
0.197095185352463
0.0496600208516107
0.0503068839745932
0.200018222219434
0.200322214668403
0.0504489841597072
0.0515125042208556
0.200155472296257
0.195475918276376
0.0517412407379021
0.050464280753615
0.18614963023505
0.160872180297203
0.0452471055671185
0.0393303316966743
0.16211734405654
0.152363422715573
0.035490752206461
0.0323874439102522
0.149921895929476
0.10169393079713
0.0274166918302123
0.0267492908061146
0.0843000339275404
0.0732666842218348
0.0264257961107862
0.0260126821612664
0.0635939230579655
0.077487749979512
0.0275463969289633
0.028860861975948
0.094014089541672
0.117308403607564
0.0300678451985795
0.0331219029020505
0.117354784570791
0.121592554087696
0.0371851393262845
0.0438535516172428
0.137993642459641
0.147699797910072
0.0495221907764785
0.0506799685001624
0.153276376480354
0.157633111795967
0.051010601125233
0.0495542189988503
0.159882817577594
0.162217863714737
0.049473463699014
0.0483696388970289
0.160844666750777
0.161666377787266
0.0490204193628718
0.0483563806251002
0.159173890600188
0.160327091640157
0.0489648327375986
0.0484436498008508
0.158310093099743
0.160070513401139
0.0490914212348721
0.048821101651842
0.159466825959049
0.161331050410059
0.0494420725835648
0.0487886474686679
0.160778197034693
0.162119942554838
0.0492686662496511
0.0490153080920187
0.16070268766093
0.161603715031352
0.0494352722752358
0.0491124063995595
0.161848894011189
0.162145189792308
0.0489768809230387
0.0492452028981898
0.163593353318416
0.162771624507157
0.0491643110011127
0.0494305113089174
0.159156532646271
0.157122231454515
0.048828082773263
0.0488156380132796
0.156643755101465
0.1547416064996
0.0481560034054284
0.0485621697131743
0.155992224754603
0.154635771377099
0.0479626139933392
0.0484746254267198
0.156970644586153
0.156042413438468
0.0478933893464383
0.0485649219880342
0.157849124147087
0.156778828674156
0.0479483742569123
0.0486893850490831
0.156985628153929
0.154081869849661
0.0485121747162867
0.049801098751094
0.151870493542551
0.147801935850909
0.0495860235637038
0.0485361124670219
0.142862629605919
0.133899713765945
0.0431214996645569
0.0358494275158759
0.119088834254068
0.111053289012461
0.0414202989946797
0.0457600161075564
0.11655248469865
0.119765732196294
0.0466014170114578
0.0474166289487901
0.122838206735876
0.124148938500977
0.0463492830945383
0.0471747840106412
0.12698567250391
0.126957476932821
0.0462072233449208
0.0469492048371816
0.129368624521458
0.128158132261863
0.0459188078766702
0.0466789621545181
0.130061057942693
0.128009136217982
0.0459321372640316
0.0466677384821949
0.129760041918057
0.128710946558671
0.0461048717282228
0.0468054162907753
0.130312066917469
0.130984257533346
0.0467584569127585
0.0473697787115689
0.132283079667434
0.135415833834326
0.0470952926223847
0.0472226026826955
0.135906722289008
0.134840220998473
0.0469630421788283
0.0470478629318251
0.134767832630634
0.134478810277774
0.047359939816926
0.0469673195082025
0.133819572616557
0.13485576772714
0.0472569184972805
0.0467157310906892
0.133769795788265
0.133886290354034
0.0474767244385808
0.0467349256937418
0.132183848108524
0.132658096875708
0.0471617349009912
0.0463843616812703
0.130586679078741
0.132401654051836
0.0471718900812794
0.0463592488090998
0.130280468715293
0.132211390848091
0.0474236069008178
0.0466266744544074
0.129862422483287
0.131160144190008
0.0479701330819687
0.0472751286406985
0.128547577433668
0.127099115733392
0.0484809474742079
0.0475642628304416
0.123824450494663
0.120203531316348
0.04671418712111
0.0421154176721429
0.114371028564337
0.103591439192633
0.0379684862697193
0.0328103203741791
0.0950483836280339
0.0940348840976738
0.0306277404239131
0.0287940457817349
0.0780448058687654
0.0791322086259997
0.0294089590231167
0.0302362157754952
0.0828899735919322
0.086239253095262
0.0305665513018139
0.0393034485982858
0.108527744966378
0.112138975043377
0.0389842691663907
0.0386556731876057
0.112945031225646
0.113142725878445
0.0385827568216099
0.0386742344136721
0.113239479114901
0.114453232215195
0.0389604817315786
0.0388088933606269
0.1155590950611
0.115578453895735
0.0388970611625336
0.0387367420484342
0.116120775723711
0.116707304001353
0.0388624664672281
0.0389730393665659
0.113441589921057
0.111669446585296
0.038524578290366
0.0383977696457451
0.111189400982603
0.111340585716587
0.0383226871635634
0.0384555562877826
0.110476715290731
0.108384480025975
0.0385127664633393
0.0387092651939349
0.105105805598372
0.100658610354592
0.037223811690996
0.0318367565102895
0.09389755455843
0.089693202866217
0.0292842596840455
0.0316592357699284
0.111311519975677
0.108090671797458
0.0307108182655687
0.0302775732896195
0.106566228925155
0.0805061990862499
0.0284488831764817
0.0275814505540997
0.0665766452615892
0.0696748457031807
0.0282914716902307
0.0292339412713634
0.0852762147805635
0.0879445399139522
0.0291717063171391
0.0285231498110333
0.0728422448931015
0.0742952202898522
0.0281510359117056
0.0290029355529101
0.0782928398429338
0.0804283448288103
0.0298064749593467
0.0302612444979845
0.0837238860580545
0.0855281649235613
0.0305073878150652
0.0312671811953576
0.0865301745422197
0.0867934191732752
0.031806383338772
0.0321851111995204
0.0864468575193381
0.0864460172163958
0.0324432417631058
0.0329917947699153
0.0876185861343988
0.0896504231550841
0.0329871710031171
0.032905776558145
0.089407567086545
0.0890868969798692
0.0330079947740343
0.0328665785256862
0.0888515951237629
0.0883394931547594
0.0328337315989238
0.0323321855939086
0.0876510535320932
0.0881488496096417
0.0318398145647373
0.0312627315229791
0.0884749081455003
0.0885831214601682
0.0306963798410565
0.0300874703599063
0.0268243256398248
0.0263771235582333
0.0258548464511918
0.0252414313521381
0.0233823349895317
0.0232153328724981
0.022874517136329
0.0225606934436089
0.0201162397590364