/*--------------------------------*- C++ -*----------------------------------*\
| =========                 |                                                 |
| \\      /  F ield         | OpenFOAM: The Open Source CFD Toolbox           |
|  \\    /   O peration     | Version:  2312                                  |
|   \\  /    A nd           | Website:  www.openfoam.com                      |
|    \\/     M anipulation  |                                                 |
\*---------------------------------------------------------------------------*/
FoamFile
{
    version     2.0;
    format      ascii;
    arch        "LSB;label=32;scalar=64";
    class       volScalarField;
    location    "1000";
    object      nut;
}
// * * * * * * * * * * * * * * * * * * * * * * * * * * * * * * * * * * * * * //

dimensions      [0 2 -1 0 0 0 0];

internalField   nonuniform List<scalar> 
162506
(
0.00149782008143025
0.00155219268687942
0.000102987432735475
7.8800715011446e-05
3.92610778858307e-05
9.52642848630742e-05
0.000460205536371961
0.000530882483251701
9.31985072365057e-05
6.34523739425134e-05
6.95895111301249e-05
0.000885926135383033
0.000936967054021003
0.00130189997349124
0.00293189531140465
0.00332141315962682
8.95290047304889e-05
9.28914342414325e-05
0.00132941668095065
0.000677625738259476
0.00091084256347138
7.98740389101091e-05
8.51388729945853e-05
3.87255755930868e-05
4.36014205543233e-05
6.12589633157769e-05
5.67983239685489e-05
0.00570465545211118
0.000106154324032253
9.82012990548338e-05
0.00813542365407021
0.00772379549244453
0.00496193344142775
0.0104498329311426
0.0150001156302744
0.0149413136347814
0.000100603892170564
0.000109813133342933
0.010657028019996
0.00846358969843857
0.000113129454432803
0.000110713217541099
0.00510481697431725
0.00458163980303336
0.000110746496098666
0.000110631149791884
0.00324851487145846
0.000815508505244438
8.7092989222628e-05
4.53256338533942e-05
8.51773023678105e-05
9.13394642689142e-05
5.00792035118586e-05
9.64927927361702e-05
0.00116094415929252
0.00128193501397939
0.000101217796363667
9.79041906538745e-05
0.000863642568010331
0.00214226718338463
8.25007188138082e-05
8.17069408682067e-05
0.00095502154454833
0.000819823170803479
0.0022842468139371
8.06791659975356e-05
9.25359090081386e-05
0.000109623843468827
9.78207913267031e-05
0.00435000562707759
0.00283502811673727
0.0041819987185813
0.00593928861020587
0.00352956542671384
0.0024740984993899
0.00192459553073023
0.0016793324503053
0.00333970425942793
0.00298430417766573
0.000102682536241111
0.000113684733442387
0.00530310204926776
0.00507041299732971
0.00827181213626761
0.000102931383857794
0.00011284290552392
9.99222589126925e-05
9.02205931484969e-05
0.010104807575329
0.00566201293438179
0.0131028824206818
0.00962115865521889
0.0145295583145634
0.0125335145046591
0.00871270262336672
0.0116667689947799
0.0150003104546788
0.0150014782625213
0.0150016942289054
0.0150004405819339
0.0150003380526513
0.010385290041707
0.0109423415764958
0.000109774153214205
0.00010068785961224
0.0149430641758941
0.00731831204376975
9.82866150329146e-05
0.000107008822345958
0.00569901902566183
0.00570760473206695
0.000110705707940502
0.000113664423228235
0.00931352898944277
0.00803723959262546
0.000111183740631499
0.000110076273249007
0.00787936781565612
0.00485627122971965
0.000110958233680052
0.000110719378533508
0.00380537245446952
0.00334336131237027
0.000115615615034515
0.000112465019203938
0.0023038703060185
0.00112579697987158
9.69980266301125e-05
5.41725484491997e-05
9.42754268398803e-05
8.76789247307296e-05
4.83546506244868e-05
7.64203832978768e-05
0.000744164040109663
0.000702673252941649
0.000112256171650898
9.67041647739763e-05
0.00131399924992376
0.00219451104607446
9.34313278517467e-05
8.75990173501192e-05
0.00271926118294673
0.00373595276796256
0.000107805684322734
0.000106073346378611
0.00351582959858965
0.00824551756011695
0.000106405672448498
9.81114855473234e-05
0.00480106648399202
0.00691931383690036
0.000104860839948314
0.000102388924189674
0.00802706419849038
0.00709619347713891
0.0110148358489708
8.65933010808193e-05
9.60092476709168e-05
0.000105912799279429
9.42711044030798e-05
0.0149278964091028
0.00818205397592677
0.0150011150785449
0.0150007004919674
0.0150003448779958
0.0150008108389274
0.0150010932278861
0.0150004691558591
0.0134248795000871
0.0141999138747001
0.00869001787564684
0.0104552071979339
0.00703812487850605
0.00489599122202908
0.00126311941627732
0.00278930324315332
0.00312911351385981
9.01386511436853e-05
9.6296140145025e-05
0.00143552045711861
0.00168885052258669
0.000103017018903047
0.000110804918252132
0.0031864126804658
0.00532202188380144
0.000110970365629622
0.000111898969980808
0.00415848460183659
0.00515696177400636
0.000110580708105227
0.000108168916147399
0.00276180379579355
0.00275035731706803
0.000105268780142938
0.000108592060985545
0.00251873173711719
0.00135810163942898
8.98317402994845e-05
9.46416782494001e-05
0.00138313530912794
0.000725793775514367
8.71397995946967e-05
8.64026485014725e-05
0.000720494537592615
0.000611304109591261
8.03575519812753e-05
7.61401688439289e-05
0.000697433930100474
0.000640450645275652
7.77319256991376e-05
7.31212834512629e-05
0.000815453780868551
0.000588111235141427
5.39903980022253e-05
5.21264888898303e-05
0.000510138039860593
0.000618478216193752
6.46503168244742e-05
5.75195027930626e-05
3.32093798064e-05
6.77624381829302e-05
0.000603937597812903
0.000540435017065331
7.23261042528677e-05
7.24098851475585e-05
0.000492194866851565
0.000480916594458053
6.02961648025e-05
3.58898243328986e-05
6.82133706243276e-05
7.44066804205291e-05
0.00038426272677906
7.05394571125138e-05
3.37063509575402e-05
3.50648800992111e-05
7.43917000585625e-05
0.000503902147672899
8.75684668453715e-05
8.46221186623971e-05
0.000561190165023169
0.000968733545431665
8.65191254171565e-05
8.63001700354735e-05
0.00153022301217091
0.0020803729362769
0.000110607237135981
0.000109301280939354
0.00293752239658748
0.00432362240756094
0.000111643373982878
0.000107225834198522
0.00702363483317933
0.00436782914376999
9.51556798387778e-05
9.55655608030975e-05
0.00442217791465125
0.00496043900271848
9.77708305930379e-05
0.000115482058651614
0.00894251960758728
0.0113981321981483
0.000114554769716595
0.000113471207421454
0.0112407860535305
0.0070196898176605
0.000106435168231111
9.44093937965527e-05
0.0149281213373586
0.014786165727021
0.0132765176855696
0.00587764108494819
0.0116687934141832
0.00941395605262967
0.0122218745050733
9.55658411880748e-05
8.70039146182137e-05
9.01438226918866e-05
0.0146909366986342
0.00536393316104902
9.9584763619913e-05
0.000103669226086447
0.00671396381748585
0.00564592513924356
0.000113321536919027
0.000102799042429891
0.00279480697555717
0.0029520981874726
0.00412961879609396
9.7156527192647e-05
0.0001107343655734
0.000113005540505072
0.00010284432755442
0.00766079055700091
0.00509390742881127
9.10198085451884e-05
0.000831313165727948
0.00235097552821998
8.14041476539223e-05
7.01138536185332e-05
0.000880436712216793
0.00101908013225525
6.37796832749102e-05
9.47446431355905e-05
0.000531949678257453
0.000455058281681065
7.79976383440856e-05
4.00561388802657e-05
9.87572015011887e-05
5.99530794216719e-05
6.40394388063698e-05
0.000927462716846725
0.000680687664895485
8.46167460897114e-05
8.28990924089486e-05
4.37521829373212e-05
3.95216446218308e-05
8.37540283747282e-05
4.5751065184936e-05
8.63679136146198e-05
0.000777742779307709
0.000875650971444349
9.7499906668753e-05
0.000103776087592717
0.00128208721300744
0.0011735266382772
9.25379127625782e-05
5.03683405115667e-05
9.53882890137136e-05
9.68385475950465e-05
5.38094347297113e-05
9.33022787138821e-05
0.00115157530609564
0.00236311381551244
0.000113801605288181
0.000106889967562261
0.00267103840604175
0.00135435320613689
9.44177153583864e-05
9.52161991848985e-05
0.00128825605402657
0.00135046090945415
9.68193206591647e-05
6.47624550429253e-05
0.000713213215861318
0.00042270718621647
5.19360650621579e-05
4.2992256635423e-05
0.000289021638463547
0.00037397406660822
4.75775116025401e-05
4.21631520527673e-05
0.000287933557245818
0.000385605657956298
4.75419575842043e-05
5.36999405070157e-05
0.000513873926997521
0.000622871118752527
6.21285319426652e-05
3.35158101088288e-05
5.22831975496189e-05
5.3006214380313e-05
3.82947150732817e-05
6.54367074035506e-05
0.000391848371291353
0.000488423306198855
6.65950709038381e-05
6.29052570507704e-05
0.000864466244457646
0.000419061599984747
5.64682693725124e-05
5.08513702552896e-05
0.000383954330656127
0.000313626348741416
5.87205420561224e-05
7.29430033117355e-05
0.000428198492051194
0.000826316395726277
8.04451393968619e-05
0.000110107771027695
0.000836437492191236
0.00131618537882849
8.93517461747426e-05
9.54993991925723e-05
0.00156123653588888
0.0026222844344072
0.000113729436255627
9.82786062343266e-05
0.00289711081654045
0.00413469371090652
9.60072746403031e-05
9.65802746745642e-05
0.00413527426691658
0.00489756678696957
0.000115131145797945
0.000114694485694507
0.00793503731488919
0.00792057168774598
0.000115011992129887
0.000114998272443941
0.00894415972581059
0.00493980685475876
9.64762398992444e-05
0.000100261306747522
0.00754404802548703
0.00319926989762405
0.00774663541746988
0.00777222864326514
0.0147373993695288
0.0119490331754822
0.0105101242769187
0.00879879089671938
0.0115705745086622
0.0134230975532701
0.0110915226071097
0.00476620531381164
9.85272113369473e-05
0.000105249455230584
0.00819970618379108
0.00341746381678475
0.000105877817688649
8.30662415173759e-05
0.00205767037517349
0.00290599187020243
8.69783627384887e-05
9.2777469752972e-05
0.00256260959698783
0.00136894285181446
9.76348809864007e-05
0.000109872315915882
0.000730179277709092
0.000824854549711121
8.52834143212005e-05
4.67748533481097e-05
7.71488282543712e-05
8.44147857156245e-05
3.39702610337032e-05
7.08181596864376e-05
0.000540819888937834
0.000635677282469027
8.54525322685441e-05
8.61129750188033e-05
0.000724855929270706
0.000668726643268683
7.98669974079681e-05
7.57793735552366e-05
0.000586200060659518
0.000545903759793626
7.63954416034218e-05
6.32757208740194e-05
0.000374530745447834
6.72063569415217e-05
3.27131011289456e-05
3.27017456043068e-05
5.57625332855173e-05
0.000389171125359791
6.15272802937509e-05
6.38134041133778e-05
0.000322566447787473
0.000411126894111897
5.45925564328618e-05
5.2567549323162e-05
2.8101974841811e-05
5.04929512042819e-05
0.000424399854008557
0.000489312126253668
5.72596595967402e-05
5.31342089455678e-05
0.000409130530265614
0.000283412905562028
4.34195585397494e-05
4.00527828065306e-05
0.000259995197012822
0.000246009881171323
3.81437079156542e-05
3.92163074488453e-05
0.000250196537143056
0.00018466847384159
3.64155262300474e-05
3.56002083645025e-05
0.000214215603819475
0.000177714438267478
2.96779371875132e-05
3.73510637059073e-05
0.000190544224809355
0.000259574705883865
3.74531954306747e-05
4.28425992569295e-05
0.000295375929310512
0.000342679593262386
3.77708225839438e-05
4.47112646563068e-05
0.000325392909027262
0.000277051780139397
4.32896934200005e-05
5.52916718845461e-05
4.28095738360218e-05
7.00586071754136e-05
0.000312021261044375
0.000380638101152728
7.36486091499382e-05
6.74542044542802e-05
0.000448635053309651
0.000507121434474395
6.27905859881621e-05
5.64060092539147e-05
0.000444938476273718
0.000432486547221725
7.55699292863033e-05
7.25246038757683e-05
0.000491395972549602
0.000494288755817392
0.000610870289072856
0.000492794005763795
0.000304266761028427
0.000435768585347584
0.000835289940313436
8.2970179070013e-05
6.56652915364406e-05
0.000577853019571167
0.000364049917745187
4.64310369026936e-05
5.11104675306192e-05
0.000461495236535572
0.000754254614745622
6.36756004457115e-05
6.79960250033506e-05
0.000474145027744833
0.000390483255330774
6.02708094521248e-05
5.44100568312158e-05
0.000333852154694463
0.000336767586362743
5.50317283581179e-05
5.3048298495378e-05
0.000499876581283703
0.000950404481813886
7.45133658937384e-05
0.000477771691792828
0.000714400309155699
7.37885864121541e-05
6.30571129933927e-05
0.000583575003944027
0.000505553805131002
6.06632046783607e-05
8.15264664955615e-05
0.000380701799270349
0.000461486442647185
9.74606366330229e-05
0.000107549834822319
0.000651370989665417
0.000663851857471967
9.36363435868152e-05
9.22623011968632e-05
0.000973688969637819
0.00178036392569837
9.2248174188183e-05
9.66556709914178e-05
0.00173001543983052
0.00304907742464786
9.71802436647566e-05
0.000114941963674412
0.00275200283281121
0.00283614096228298
0.000115303360387269
0.000115422896328296
0.00519706869953034
0.00411907598349609
9.69224264434428e-05
9.57626615180008e-05
0.00440126006451718
0.00435109660076977
9.59429157507897e-05
0.000107234666576808
0.00760978621580902
0.00412403361020704
0.000107786519293342
0.000112850700859933
0.00320680385619509
0.00234752258136516
0.000110595773346211
8.33170330747622e-05
0.00187580348619208
0.00089715743910103
9.17616884486178e-05
8.11760896673189e-05
0.000521349049268214
0.000299544579870612
5.48786810712995e-05
5.80941378023778e-05
0.000791689747500241
0.000560334570506184
4.65143295162469e-05
5.68080964573709e-05
0.000797638425351458
0.000585173533922979
5.46497653864187e-05
5.3259642949099e-05
0.000417843250109319
0.000423320940507579
5.47491427923392e-05
5.40215681034953e-05
0.000430817903022783
0.000389194183726521
4.96179020166492e-05
4.8291043578473e-05
2.61107621203144e-05
4.1022032256684e-05
0.000285189395673609
0.000243899978858273
4.25344040378585e-05
4.55228603738518e-05
0.000224943342686122
0.000334974794745526
3.98429823992425e-05
2.46712891362273e-05
4.25956285508525e-05
4.49128090925278e-05
2.66080313992556e-05
4.53863713083186e-05
0.000428914009630768
0.00044335855431719
5.32064871582407e-05
4.36883158203525e-05
0.000306422764798869
0.000217401899406311
3.63324098674241e-05
3.85353936457145e-05
0.000182586099545208
0.000174538857036535
3.72487890572046e-05
3.26566571783789e-05
0.000129739958826417
0.000127913106115779
3.19814904287791e-05
3.07440325005993e-05
0.000153121982038851
0.000147389141069036
3.34273989645191e-05
2.62107649712016e-05
0.000126273752136643
0.000140679366445326
2.41546087380776e-05
2.97927431245116e-05
0.000168745612849231
0.000213563174755466
3.02019255160253e-05
3.56719964085226e-05
0.00024289113729021
0.00026371485657516
4.08073663455193e-05
3.35300264087708e-05
0.0002468365842435
0.000212260672201952
3.78716615888992e-05
3.89869889123403e-05
0.000204271720620906
0.000265574890961793
4.76805478836954e-05
5.93973963705112e-05
4.76848379574719e-05
7.56726245876037e-05
0.000303545800008734
0.000370164147701981
7.98101812081791e-05
7.31538123347538e-05
0.000430572614227971
0.000575733128273934
7.03224751806948e-05
8.11334504688228e-05
0.00055646585949766
0.000439025411031329
8.0154413396712e-05
0.000373505933269501
0.000294598080693067
0.000184183907604094
0.000124815755723575
0.000137446592206755
0.000211776729711416
0.000223295844551631
0.000156904660191273
0.000281610413706646
0.00047290022285713
0.000651841378131811
0.000108926009757145
0.00011007482376222
0.000962876848022978
0.00158491087571213
0.00011329186097213
0.000113808523892412
0.00159274006459937
0.00169994787253572
9.76808357418795e-05
9.76098707148131e-05
0.00316863270768472
0.00304205217516564
9.69328594958741e-05
0.000115207034628607
0.00304019241384013
0.00171402518731426
0.000111096310830683
0.00011261352718461
0.0012940049384916
0.000936035422072836
9.50993271623888e-05
8.2675784597651e-05
0.00096390664580941
0.000412058200212582
7.3602596235484e-05
7.28046461852187e-05
0.00042595969111445
0.000409502396620522
4.15970922460672e-05
4.91286554086879e-05
0.000464120623973588
0.000444871733860638
4.79983154737135e-05
5.23014713475379e-05
0.000328626169528433
0.000287882766173994
3.93173126367653e-05
2.58807173935049e-05
4.45240166571982e-05
4.64410110618818e-05
2.96982623522574e-05
4.12355810606922e-05
0.000233921163692432
0.000200697278589614
3.53636276520618e-05
3.02293786624727e-05
0.000230074745503426
0.00018980973493073
2.84321936955085e-05
2.3444856919318e-05
0.000175413779401481
0.00014861111100831
2.28077064140024e-05
1.74714196973374e-05
0.000125708663717851
0.000111515841503297
2.22539091469278e-05
1.82643848867774e-05
0.00010723923397981
0.000108833640693429
2.23914990025403e-05
2.32831251382821e-05
0.000107692629508027
0.00010614838335081
2.29519168277337e-05
2.24705265500142e-05
0.000106171802210169
0.000107950331166499
1.82055996553713e-05
2.24093958526774e-05
0.000117349721991885
0.000135197310293394
1.78646282686143e-05
2.32370326442788e-05
0.000155002955367376
0.000188994249377829
2.53593034908898e-05
3.08902966462157e-05
0.00021272611115268
0.00018181810360835
3.07788691104216e-05
3.29940841582371e-05
0.000175167968790946
0.000160658860906645
3.89373056991413e-05
4.29966339644245e-05
0.000196466921683657
0.000204791411910394
4.9764086071025e-05
6.12659441413959e-05
0.000293113478337388
0.000348379824072124
8.32348543966378e-05
5.38960864623877e-05
6.98210684299964e-05
8.09095772447261e-05
5.87402403647384e-05
9.37693307332621e-05
0.000448246011642972
0.000550711463094058
9.58400070221343e-05
8.75403527735492e-05
0.000419228791403771
0.000454666044341922
8.08932910984618e-05
7.62025363838584e-05
0.000495822118032119
0.000570442139210676
7.96048891859038e-05
7.68524598675178e-05
0.000571064777026586
0.00052211934365834
7.24892323004067e-05
0.000507788047036953
0.000360881872084026
0.000410905350544802
0.000383239970368676
0.000434790012238225
0.000508631332524454
0.000626697728970349
0.000111643867537756
9.79969710920403e-05
0.000761054965328444
0.00105710765548041
9.56953041098606e-05
0.00081622760390967
0.000767015040326326
0.000720935777245519
0.000944693758377544
0.000110154254927417
9.55804535325017e-05
0.00097745580126175
0.000973320777698328
9.27849821708566e-05
8.84807089199396e-05
0.000949338941825179
0.000595112655980045
7.66677754813065e-05
6.59934717284427e-05
0.000713737244467513
0.000640086847072957
5.96368813632459e-05
5.96001108271826e-05
0.000727515337375734
0.000593646781510719
6.46421418021769e-05
6.53013363156585e-05
0.00042961671900026
0.00034534402124906
6.14394565706673e-05
5.35265446533202e-05
0.000332447334488441
0.000304441601490056
5.12201088215822e-05
5.02389857140282e-05
0.000255842340990697
0.000220534389721952
5.84237643266906e-05
4.91068841205222e-05
2.98507292549442e-05
4.30388116645261e-05
0.000216306028563756
0.00018198802854211
3.62432736338943e-05
2.86931976035326e-05
0.000197049632942192
0.000190511894248948
2.4441126640107e-05
2.08169511931683e-05
0.000129832858538295
0.000145746712465481
1.61723231139828e-05
1.7908655177106e-05
0.000132807965963756
9.70324770824975e-05
1.99277409629533e-05
1.60228357784981e-05
9.71639561000552e-05
9.48718576267098e-05
1.92294227333221e-05
1.67148083958649e-05
8.57178235676317e-05
8.06819927484262e-05
1.90594852498938e-05
1.6944260039894e-05
8.35382418015812e-05
8.96813447228783e-05
2.76392247571513e-05
2.0804177853069e-05
9.73421597213431e-05
8.17812118326121e-05
2.49384676595842e-05
2.61515002817818e-05
8.68711922391952e-05
9.38768250283111e-05
2.98890530504744e-05
2.78261173430821e-05
8.95248452070037e-05
8.6151945257071e-05
2.08832273083228e-05
2.47789660650217e-05
8.12880583730907e-05
9.26612920347641e-05
2.0312830007078e-05
2.29916101226097e-05
8.9459475145643e-05
8.32264917049068e-05
1.65560018449492e-05
1.73228739674714e-05
8.31888655356502e-05
8.76307420815351e-05
1.7050567513747e-05
2.06583194710997e-05
0.00010235064963371
0.000109490630676284
1.66227740603488e-05
2.03625969071117e-05
0.000107096927971659
0.000145964512748358
1.86398262392585e-05
1.78433599040914e-05
0.000182440795602129
0.000153809996336086
1.86590819150185e-05
2.08103663039963e-05
9.62534902498671e-05
0.000102157423745892
1.57628636588604e-05
2.25093060806271e-05
0.000104160510164917
8.97017339027935e-05
1.81162146378195e-05
1.78693102319241e-05
8.17444855102333e-05
7.96203502172818e-05
1.67247473018082e-05
1.97015886468987e-05
9.03200023875739e-05
9.61504699228375e-05
2.0801181554662e-05
2.49017392059366e-05
8.49298132290439e-05
7.92888711488604e-05
1.9584773356961e-05
2.51983346148419e-05
9.50988582479953e-05
9.8196423994946e-05
2.60316680394993e-05
2.46609832632728e-05
8.74742580271652e-05
8.87813875400161e-05
2.60227033662595e-05
2.08654408747745e-05
0.000103900139448295
9.41526661879201e-05
2.10962123909816e-05
1.6324609928865e-05
7.90091278900477e-05
7.92631734563004e-05
1.83522020242522e-05
1.77207253280828e-05
8.82583030139477e-05
9.60970779989162e-05
1.99298708125915e-05
1.5646247099606e-05
9.13857401544711e-05
8.89096806082931e-05
1.97576601548329e-05
1.85119741210017e-05
0.000126957035275889
0.000160900762481637
9.16457387025558e-05
7.98996468528629e-05
6.10298989353228e-05
5.94414788355547e-05
5.97237762304355e-05
6.74230749822473e-05
8.72165278650831e-05
0.000126594027115992
0.000248374532415733
0.000334404956669765
0.000499084650024186
0.000653357191318023
9.51477732059618e-05
9.20642297241966e-05
0.000668996289666814
0.000555481890127871
0.000100823253955821
8.19087635816301e-05
0.000493448012855632
0.000429952667874982
7.27315834122153e-05
7.00777637196914e-05
0.000460717455315125
0.000472320808897272
5.75427783031122e-05
5.61388946208884e-05
0.000519844200993317
0.000410170902501959
6.17415345491923e-05
6.59740989519333e-05
0.000358424509067197
0.000297393370862934
6.49583884943902e-05
5.75398626558361e-05
0.000266795346940419
0.000272733498452081
5.66429471472425e-05
5.23441900106802e-05
0.000212362871545108
0.00019755703023342
4.85508794633761e-05
3.41870769208696e-05
4.49738239594306e-05
3.97990980706898e-05
0.000167979043650321
0.00018585095950511
3.0780762149239e-05
2.28855612775272e-05
0.000154445070549898
0.000166608467676366
1.92115780110445e-05
1.96921667034802e-05
0.000119696413862285
0.000108217122143158
2.18990569610899e-05
2.15590131140968e-05
9.83433925704102e-05
8.38310901708072e-05
2.34899628633002e-05
2.27385534977451e-05
7.52776789109805e-05
6.960373975149e-05
2.25736545479453e-05
2.29099549526025e-05
6.06401421531205e-05
5.42655264425345e-05
2.41911984294461e-05
2.39325474348292e-05
4.96630480307863e-05
4.53267672869187e-05
2.31560271212293e-05
2.0978771461635e-05
4.30374101402765e-05
4.00769479621773e-05
2.29851726544998e-05
2.46039915855711e-05
4.04555238815833e-05
4.02500102864324e-05
2.45991840661622e-05
2.36414881130006e-05
3.98367561358595e-05
4.12062949575274e-05
2.26541026723829e-05
2.33264833688089e-05
4.18917916428861e-05
4.53686490342675e-05
2.24504286492004e-05
2.5040795922913e-05
4.99001393278577e-05
5.56003085500094e-05
2.38646717640399e-05
2.29017087061394e-05
6.16234953532466e-05
6.68706989481328e-05
2.34155676530938e-05
2.40382235446053e-05
7.66804742806798e-05
8.61801396586943e-05
2.34786034598734e-05
2.40489027899433e-05
9.3927455708409e-05
0.00012017708470852
2.33504652104778e-05
2.20892047195594e-05
0.000118152261203946
0.000116833180356022
2.17098182844785e-05
2.24619716987044e-05
0.000149363084061819
0.000142262138005115
2.85168160715066e-05
3.62220004781579e-05
0.000141319835765075
0.000153205766991571
5.12522510512222e-05
4.9070215590031e-05
0.000173687316805801
0.000182568603091973
6.38807950661342e-05
5.32828684770598e-05
0.000223399230253223
0.000251014102975943
6.21367686332146e-05
8.31599880263291e-05
0.000364460904427637
0.000470269801214412
9.54098026145575e-05
9.10512640376153e-05
6.14324955685672e-05
9.86777881896812e-05
0.000619008745789734
0.000758027062658552
9.41494223807049e-05
8.92550457204009e-05
0.000690215380185666
0.000667876859598809
8.3346049444444e-05
8.0760257525342e-05
0.000591186038402126
0.000678746582754881
9.2306877378953e-05
8.08947170208122e-05
0.000732869129241506
0.000959234318479172
8.14238417239174e-05
7.12073731677577e-05
0.000641257790816748
0.000650556814944159
6.57894267005119e-05
8.70963216893383e-05
0.000560879336709673
0.00078651854185062
8.61393986554717e-05
0.000110733309497603
0.00120815068319524
0.00109700206457296
0.000116997480885631
0.000139759635355519
0.000968356097359017
0.000852463066736523
0.000143592531214974
0.000119838708551713
0.000573463397862162
0.000532845108627753
0.000118066544851218
0.000108053972521931
0.000614319916957739
0.000430164009181482
0.000394819069678036
0.000431409770601367
0.000548597774729651
0.000107505517873027
0.000137665362963353
0.000817742589981947
0.000874852289494454
0.000117590447016219
0.000103918082825046
0.000862895705290012
0.000604426442193361
8.49202494208273e-05
7.7610750751124e-05
0.000430930257936015
0.000449162132211832
6.85343261186148e-05
6.11442591332239e-05
0.000429340986037651
0.000477586545572113
6.03381416918314e-05
6.91055563324874e-05
0.000494680878799959
0.000382175587367072
7.59894220946556e-05
7.49050103958582e-05
0.000342721874577628
0.000285138715334511
6.78570920967702e-05
6.8208927667883e-05
0.000317352152235625
0.000225773838737386
5.86894938792304e-05
5.42266034679405e-05
4.35019587964982e-05
6.049832566655e-05
0.000221251815499981
0.000171916300509697
5.49339521712846e-05
4.79242296375812e-05
0.000186076589645837
0.000182211870714274
4.86128235708861e-05
3.63438895675011e-05
0.000100632714309016
0.000113289964902741
4.83967925339165e-05
4.91824524021497e-05
0.000106816954798472
9.61855377882593e-05
5.14603605320003e-05
4.5386795781858e-05
8.08749359181485e-05
7.85637478174294e-05
4.09717079369341e-05
3.82337981895594e-05
8.16879809368714e-05
7.84386372753199e-05
3.84950456912353e-05
3.7139715244479e-05
6.93331701033908e-05
5.43186465946364e-05
3.54167950056302e-05
3.52199958805808e-05
4.48184472377859e-05
3.82864297940731e-05
3.31579342633714e-05
3.14440735178694e-05
3.47356715160671e-05
3.26508950619201e-05
2.94298686533773e-05
2.88508012050962e-05
3.15198406850325e-05
3.05145422043189e-05
2.73826183417144e-05
2.74142065272337e-05
3.01334889759508e-05
2.96655762230563e-05
2.62580574802026e-05
2.65642711762739e-05
2.97130990822514e-05
2.93037152484594e-05
2.6461695070863e-05
2.6262841845188e-05
2.88594448887701e-05
2.86882105055081e-05
2.72869123891719e-05
2.75333203868715e-05
2.9516523747213e-05
2.94752980646612e-05
2.72877124738442e-05
2.70682571832285e-05
2.879125791786e-05
2.88451913724952e-05
2.70162056479184e-05
2.7066511034153e-05
2.92499572758752e-05
2.95026753501493e-05
2.63257191448134e-05
2.69262228149883e-05
2.89686087786077e-05
2.9392092260988e-05
2.7488714100619e-05
2.72915993990401e-05
2.97931754181014e-05
3.05724228695963e-05
2.83273604170713e-05
2.81907961811191e-05
3.09309828186225e-05
3.19098330567587e-05
2.97687021772704e-05
3.04644215012288e-05
3.3133639319309e-05
3.53982914875517e-05
3.25197366257814e-05
3.38481992346621e-05
3.90431112880508e-05
4.56524326602615e-05
3.61950747744104e-05
3.68150424026842e-05
5.55537371790192e-05
7.15618348558743e-05
3.89948649943454e-05
4.04426667380336e-05
8.10299823679164e-05
8.67136046432404e-05
4.00693256216754e-05
4.31146294586852e-05
7.98944139314191e-05
8.48638831136484e-05
4.60004996052888e-05
5.24552157502371e-05
0.000107039135045911
0.000117394871245895
5.32242233240038e-05
4.22863580576922e-05
9.55857965103731e-05
9.36965293407145e-05
3.26904650292651e-05
2.94177076026298e-05
0.000103099944063231
0.000101441157015288
2.53971300469234e-05
2.66429234248236e-05
0.000108593904435762
0.000112708624012252
3.14383937704587e-05
3.9199386296306e-05
0.000108714113037602
0.000101122170574831
3.73109289340342e-05
3.25748876787561e-05
8.14738439685498e-05
8.07418563971269e-05
3.75270216483796e-05
3.16805419737018e-05
8.30066133974689e-05
8.09296309337417e-05
3.20920794637202e-05
3.12201437783971e-05
6.94247440956256e-05
5.48915049975915e-05
2.93020278730134e-05
2.90064187992293e-05
4.40177787313873e-05
3.71146930971509e-05
2.67674473351549e-05
2.61351263397308e-05
3.32612774419053e-05
3.06846876386419e-05
2.42927683907688e-05
2.41398765229678e-05
2.92977201428835e-05
2.82063995049259e-05
2.25896467595134e-05
2.29746243446017e-05
2.77838405482041e-05
2.71182512896236e-05
2.20432009546391e-05
2.24040430807039e-05
2.67893759732294e-05
2.63282181687076e-05
2.19626770163297e-05
2.1354689192157e-05
2.67437837815357e-05
2.6514290891434e-05
2.19219853468256e-05
2.20667294039122e-05
2.60720064100533e-05
2.6030305349138e-05
2.21028590838663e-05
2.20076022313797e-05
2.6632668373861e-05
2.66963807806757e-05
2.21999976020887e-05
2.22554383599981e-05
2.6081261393271e-05
2.62362062995873e-05
2.14562236472036e-05
2.15474368621728e-05
2.65561979997132e-05
2.68618170808163e-05
2.15791607239266e-05
2.13032439829457e-05
2.69070450509569e-05
2.73763952930672e-05
2.24127378284832e-05
2.20629002245619e-05
2.77971949863049e-05
2.88116696276807e-05
2.34342702116195e-05
2.35550796489794e-05
3.00824604127695e-05
3.24520294240213e-05
2.54410474275103e-05
2.63237908997367e-05
3.62254238296793e-05
4.27959883548895e-05
2.82503530678197e-05
2.82236327044053e-05
5.38056533708895e-05
6.6916882986034e-05
2.98613653198096e-05
3.07919708682217e-05
7.78932151907146e-05
7.88937032285151e-05
3.03176848090749e-05
3.59842368467334e-05
8.00371914611109e-05
7.84166770895333e-05
3.25000336990842e-05
3.06241882391563e-05
8.12995265424967e-05
8.04852039059598e-05
2.6381605142734e-05
2.71254864411193e-05
6.96429805110387e-05
7.02867559197922e-05
2.65773095800514e-05
2.50071634099176e-05
5.32845093668896e-05
4.67436357536276e-05
2.52758497358333e-05
2.34582679437141e-05
3.58550997928257e-05
3.39262088907878e-05
2.32379690259747e-05
2.12623183972243e-05
2.99082573401088e-05
2.92034363737617e-05
2.16286237687559e-05
2.0099052079786e-05
2.76180234639934e-05
2.72123337650869e-05
2.08307827381354e-05
1.95332637243318e-05
2.64335823728581e-05
2.66561329350205e-05
1.99239148442756e-05
1.99203395105277e-05
2.61890435725788e-05
2.57958186299174e-05
1.98382650083894e-05
2.05560960225159e-05
2.54476309358686e-05
2.63965599235173e-05
2.04057283652083e-05
2.02542077325153e-05
2.64045916790356e-05
2.53983393626392e-05
2.05260073041316e-05
2.04574977309806e-05
2.54664143715547e-05
2.60766579320083e-05
2.0246355041039e-05
1.96945212159994e-05
2.61706989690188e-05
2.57738386575184e-05
2.02648775912529e-05
2.07549193254903e-05
2.65203876625101e-05
2.67981374812163e-05