/*--------------------------------*- C++ -*----------------------------------*\
| =========                 |                                                 |
| \\      /  F ield         | OpenFOAM: The Open Source CFD Toolbox           |
|  \\    /   O peration     | Version:  2312                                  |
|   \\  /    A nd           | Website:  www.openfoam.com                      |
|    \\/     M anipulation  |                                                 |
\*---------------------------------------------------------------------------*/
FoamFile
{
    version     2.0;
    format      ascii;
    arch        "LSB;label=32;scalar=64";
    class       volScalarField;
    location    "1000";
    object      omega;
}
// * * * * * * * * * * * * * * * * * * * * * * * * * * * * * * * * * * * * * //

dimensions      [0 0 -1 0 0 0 0];

internalField   nonuniform List<scalar> 
162506
(
1.03451179724131
1.07662184190129
11.7856350829426
12.4495954413268
16.6335713988222
14.2585702961189
1.5902742192452
1.21832554786866
12.904012814659
13.6380659419639
14.1861245369575
1.10881795495224
1.111316754456
1.01921540320134
1.00298000160904
1.00607051771645
13.0955832763724
12.3548788774447
1.0220285542698
1.46606876582045
1.66572433166131
13.3401689888936
12.7729296035548
16.5121417579512
15.9606933547806
14.2447932312422
14.3964001574149
1.0063242382355
11.8143756070574
12.5091827016023
1.00241102383144
1.0002662866623
1.00199735550732
1.0000229530897
0.999894473964089
1.00379881834917
12.294099293731
11.6840030278316
1.00902039709014
1.61901812324867
11.6729974457687
11.6196993668284
1.47101995091326
1.67965442138978
12.4313224419679
12.0560065119879
1.13995805928906
1.65959075801465
14.5181252586691
17.1148224181918
12.4965709518494
12.7377026649369
17.8384608059687
14.9943021684342
1.81332646227762
1.52611075922678
13.649002355053
13.153563978535
1.44843264175158
2.41221813365853
13.8170720176508
12.6470113941031
1.60132966852436
1.03328980473842
1.00676613337149
13.9019360213396
13.036124407173
11.6869158464334
12.0024580823125
1.00216325411789
1.00816395967116
1.00253200696081
1.00060265830561
1.00199220483038
1.00655221560887
1.00761000078936
1.12008355550567
1.31298980705945
1.84971932607274
11.9884520295269
11.9532604892985
1.53240043442952
1.00559831945565
1.00179034378365
11.8114412006755
11.6054414712232
13.1762210801157
13.9108967891928
1.00388350778177
1.01000326237613
1.00011780580329
1.00011099519952
0.999955655884873
1.00000188658942
1.00047016965026
1.00002765706404
0.99991215967799
0.999839450647732
0.999860228208225
0.999923097743416
0.999913038697465
1.00004742362081
1.00906652273396
11.6805825641297
12.2896222741085
1.00372036716521
1.00227555093388
12.49659425845
11.8041479234001
1.00619998204416
1.46887970065281
11.6100199950674
11.6697585021377
1.61850673068445
1.88056605790535
12.7244949335406
12.7292531395436
1.88180402992949
2.0204241409235
13.4199647479214
13.0096079907018
1.8074266332271
1.21735285426667
12.3969388221635
13.5338466851476
2.28593090015737
3.11165915911557
16.2309157943545
18.9490414662631
13.5103115758402
15.8230926983954
21.7773422714765
19.448003763244
5.72828062512442
3.60465582761405
16.8257472248352
14.6522839892281
2.33572945019931
2.66059033440204
15.5961458997474
14.9065287412168
2.43031942090735
2.6661816544948
14.6605839052749
13.5245930238865
2.52094173832782
1.83661203663048
13.2115018886089
15.2974365708149
3.19405761106232
2.07702524484003
13.295741572669
13.6020686176296
1.88367018458497
1.01321997903733
1.00525605147777
14.9669424014425
13.9111835641578
12.8154071738561
13.6253564134461
1.00477211118312
1.01060950956342
0.999925145821539
0.999940193255103
0.999911629055037
0.999769551896158
0.999802976807161
0.999922029160871
0.999975881123234
0.999986201673173
1.00050472109548
1.00007366700167
1.00035601885593
1.0021351304712
1.01995871421412
1.00330928932955
1.00433210729378
13.0739494141021
12.3333042032644
1.01948399400712
1.07035724517298
11.7628797777997
12.0304695630951
1.13311907834267
1.67636150749437
12.41877264678
12.9948432889869
1.80499526989168
2.01896909912473
13.4132758591858
14.6137035483824
2.73500382184452
2.74787752350214
14.6352650190178
14.1965463543274
2.60861344018645
4.38029582251217
17.4532084372221
16.5670892086232
4.1964953879689
4.86902645196495
19.8262552381126
20.3775637908771
7.56520178464715
8.2310806946828
22.4225999758929
24.538724644501
7.94557599228666
5.94796869834288
22.6293730439198
24.4155473631244
6.83570940455688
8.93984330060276
32.1975088099776
38.3473302632162
11.0839945645889
12.382080566314
34.4617056406304
37.3121897787301
54.1380997784428
32.0018338115437
13.9695039128319
12.6386233470644
30.0771467049655
28.5537071829307
12.2445903178776
11.8793197592509
29.9721539076289
40.5646551998892
29.14837307114
27.4414284639694
9.20534132362592
23.9757833005845
32.5244554515659
28.6462809765792
19.6722202660677
7.81893047102005
24.4908046030538
20.6068673699152
6.08287044250119
4.32475508310181
18.8775319117019
16.6885267590721
3.19991213929232
2.95987625335744
16.0787439732638
15.2883815048615
2.75583201389786
2.07571009091434
14.8633728813241
14.1534856750876
1.98353144061481
3.5258099249784
17.1323341031434
17.1379405047408
3.48581804226653
3.09092019719127
15.3369712171078
13.2263777650875
1.69013692087134
1.32003352675541
12.4084189252257
12.4014254129613
1.32872211948672
1.01034389609863
12.8009994148788
13.608698790767
1.00482128738511
0.999955105263778
1.00005122626502
1.00101020796589
1.00003224047645
1.00459148412633
1.01696299061568
13.8699302933793
14.9182942075571
13.8559395924702
1.00534274937635
1.01138188518263
13.129949583064
13.2725958648239
2.09852922384316
1.54314569800331
11.9440083311682
11.9906310945577
1.85635136616472
1.00790282420811
1.00225606825858
11.9725405319338
11.671559499169
11.5794549788707
11.7742794634529
1.00203031881416
1.00591011965456
13.0125232591696
1.03252470352706
1.00643522750012
13.8643168204157
14.1613283690023
1.10204427615819
1.10379122681184
13.4366362265217
12.7321861848501
1.31369649009604
2.01800064646159
12.5954319011036
16.0140905002376
13.547854989499
13.2671853152811
13.7992790572418
1.16681127517611
1.15138154349398
13.1131163121891
13.4797177934771
15.4106460647447
15.3805359839458
14.4627942021792
17.0622307591552
12.468153506537
2.09641778818036
1.55147297162744
13.1431947099584
13.6570876194471
1.65305050151872
2.26257707281762
12.7038605154189
17.7920610001461
14.9512366793213
16.2934160605798
18.9427575099205
13.6840743885316
3.75512696040694
2.36338657515359
13.518657089189
14.1596723095078
2.59239227105594
4.35624742606203
17.2877616127813
17.8695764948086
4.46159935230413
4.48546266516655
17.9414424120124
25.499859347518
7.2217399248048
9.75633830940733
36.5057812888911
44.8663909974319
11.2435413456821
10.8285130295383
43.1600984218675
52.0919901587907
16.2503700484778
16.0999798639538
46.9553963084308
40.6746297115014
15.5407189516132
13.985380071771
34.436160615354
56.5132567424951
41.2215630810039
43.8617641602479
54.5479107015438
36.0525625899322
15.0804999866362
12.9390199070708
34.774156464388
32.4200946528148
12.8032946729591
12.0705423324771
33.9711924428607
32.0832031881592
10.4323380235286
8.95281877450322
26.6986683973132
23.8998293221908
6.9238089746851
6.47924396041138
23.8072489276081
21.7573997298957
5.71753268487784
3.67188167932621
17.6668667658007
16.870570601218
2.62163526462445
2.1903517069986
15.6088473571022
19.5022703181253
3.86920765933299
3.73975650946051
18.3531728519363
18.3337653203247
3.74554675925573
2.04823724028151
14.8214528907461
14.0847842872157
1.91174744307392
1.91593283162604
14.07936292663
13.2250050592866
1.6904339205999
3.10442898935255
15.3372085483539
13.5831060030525
1.9102195070151
1.25922711637482
1.00128800270848
1.01041980087181
1.01817119448216
1.00081970723276
1.00030751834099
1.00016533195095
1.30022688898182
1.11919425998533
1.35729755534542
3.21761522320658
15.2979870314702
13.2092301639003
1.84654191198587
2.52976471843643
13.5313943665459
13.8231918956543
2.43045929600736
2.47206340977267
14.929665225455
15.6585121696033
2.76005920968154
2.5522948843503
14.7300963164532
17.1685575794393
4.02696956307139
6.29872693141234
16.4061728816375
21.8708696571822
19.6319319829262
25.0733420720319
28.8459047937664
20.919908304866
8.65681107900827
8.15126930087187
21.0107202691134
19.7414945048765
4.89569213722459
5.97745148839683
22.1123562874577
24.7820749483446
8.62717630904115
8.89709262663318
23.5316484507605
26.0070175317771
10.0167329085693
29.1687001629094
33.5296825022745
43.4680046275751
32.467940591781
13.5293628474746
32.8248439866916
34.4755982047795
14.8065647842597
15.9709584708052
39.0587044253946
39.444078928153
57.6531659888178
41.1131737550077
17.5164341220566
14.9898391908564
36.2258014338631
38.1869646663517
13.0359423169261
11.8959623263416
42.5460401236759
44.1945781267836
11.700870012985
11.3348247270128
45.0372953254583
45.3480870318943
11.2924646335914
17.4191467869537
54.1899156873075
54.0371762464394
17.2438528999663
23.3481979185127
71.4081075927197
70.0012907038672
22.3444561235744
21.5126733100314
67.1427707687407
62.6352744326717
20.6828935514555
18.4592799928808
57.2292851277161
50.6729481797309
18.5463694369837
20.9525994459087
59.5347873729303
47.0135774970555
56.0139878966901
37.85768934885
15.9111072802856
13.1898433572223
36.4489519779753
40.2648926015411
12.3541016297858
11.2926006240753
38.4664090946163
36.0895049086989
11.1354186364975
8.26569271669531
30.4490121137791
27.8445413052118
7.59311682697748
5.11680754891257
3.31851214547133
1.67692823195516
1.780210258473
2.29298328221533
4.54842016455285
23.4465133279748
22.5422242335463
4.70021840799412
4.45788381482889
24.4092457818225
26.6804648920238
4.93953872842025
4.90125165348458
26.0805891967428
28.2894886326396
7.48798609805134
7.23717519876969
29.0030945581654
30.3148251540559
7.14971328258968
8.7555278120218
33.1838252515918
30.6037119283574
9.06133153714616
7.05129476340999
27.3166887998228
4.74699494328526
9.43930806458865
30.5869072916841
38.1763264215767
11.7933871092918
11.1791579034872
37.0490504010674
31.2546440454487
7.74492660725721
4.8459923214488
25.4125899952056
25.619259597275
4.79476158331744
4.82563914621686
24.6199954852326
22.5845779342724
4.69212933318442
3.97866948947448
20.6809689127624
20.6445256810116
4.00333295959943
3.88741365940577
19.4683314653262
15.5074329193609
2.12247834176389
2.12948739947227
15.4929363724306
14.81271929041
2.05691490872538
3.76002057966209
18.312006592477
17.1300902067424
3.50282876275294
3.53834415423664
17.1283023490057
14.1430999392837
1.99326140736886
2.6784527860455
14.6655903198725
15.2818613418348
2.75807398381971
2.9422140285573
16.0348082848521
16.9463084050865
3.51370577905632
4.74529954914707
19.4353702937114
21.5864614787555
6.78875542047328
10.0436169215557
28.841765180114
31.7880003501781
13.5132135867221
15.0204933719661
40.8202375680767
43.2491714585362
16.7971771982526
16.4157123450394
42.3817861102636
47.1531314821502
20.7874705855941
20.8368355977227
49.818482917338
47.535758392678
18.0412595730101
19.6511272717388
52.3307762449924
61.8651654099745
85.4118466902624
76.2923187543388
27.9271775929165
30.6903331914922
78.2893616768903
71.3669115022724
28.6164895362308
23.769495686609
68.0228350107519
85.5398772228675
55.5441621763809
49.1746427230677
73.4747582980027
53.4718001442901
23.5457913338151
21.6421540312147
48.6658876847182
49.2830633772499
19.1597287510823
17.6692590779816
52.2891704400001
53.3300293329685
17.7636236438104
17.5220620754459
53.8436116242266
70.4461312714109
24.2149564871402
24.3432222244178
70.8189446122167
71.1283772516648
23.7010536907475
23.8423478799631
71.1740392364026
96.3634266908475
34.5780784311541
33.8779789313125
97.0489716641638
95.7655523138419
32.565125204101
30.6828910056508
90.7237887615004
79.0962739750631
26.2234894101295
20.5293051486079
66.0004247074016
73.8014730372503
22.9468107283407
23.3501444226437
80.7366510185195
83.7868917865665
24.3320944351465
22.0955222519216
65.3061382389503
49.364434062006
58.1639465925653
39.2756617875521
16.6805240164852
13.4824409980231
37.8996293839417
42.2948755140388
12.6094906846432
11.4102211396657
40.3309903350399
34.3251963623616
9.19896183186158
8.64919628352165
32.8792970930589
5.82417361586432
4.0571286182781
3.84298265392568
4.60365548666937
2.65935432666035
2.29890613274768
2.06315007133371
2.2286188384361
1.45127590725472
1.27248493312602
2.34863920009961
17.5292982327023
16.8676924914941
2.23263233764252
2.16980838921986
16.1810386630612
16.1472535297323
2.15326301908191
3.97514153273159
20.4910561241956
19.415980556338
3.90510560319571
3.82423302517811
19.4295306862216
15.5312527687254
2.1830128308147
2.89738645485659
17.1087343641435
18.030285114152
4.05210034451325
6.48931139429829
23.3511750381421
25.7298491342243
7.96641029323342
7.66112822592478
25.6651657768462
30.3760493957981
8.71350145812926
11.6670014536408
35.3628504300085
40.2743024761607
11.9821297241027
16.3074875380196
48.3624058278852
56.2100335778892
18.952911135758
29.3446714258843
83.4765686364164
96.8267890947932
67.1669548698329
65.9369791707199
95.6114467159225
90.4607937851548
30.6103198013725
36.3418516543529
105.460646217132
106.0879022376
42.1748430625038
41.2233063862606
107.557460269739
131.397005010146
46.1197957264986
53.1622756310244
147.58579664315
142.414351212345
50.8685630538301
51.9894744595438
141.386361110525
143.798885737856
52.5049606269445
52.3853216708312
143.927863502897
145.019816235379
52.322880424162
52.5601736393311
145.25197890724
145.558149905953
52.7563730516189
52.0747277678968
146.107604043951
146.24077916274
51.5373274670513
50.2739932475674
148.138550761524
151.470354758482
50.3423252437592
41.4333335271809
131.417547121779
96.5427381274228
30.6200853338707
32.1099384485416
108.313577548231
113.732951942762
33.8270366858941
36.1260151390665
120.510233341287
86.6139693906416
24.7261210945291
25.9897745262513
90.2448040587285
69.9005536310361
23.1974701940862
17.3773753619528
40.7937267282894
61.4847341730925
51.7824101954127
54.4746547143821
65.6011368836351
42.8251555664541
17.9012175184881
14.2899768124705
41.4652781333238
39.4149085581197
13.7626938596605
12.9695653745825
44.3946061475064
42.2869472425992
11.5913125603424
9.43682114207164
36.3331912824596
36.5977294825975
10.6976971665284
10.3442899661018
33.8866719577785
5.72117056674493
6.36118213066671
4.98216352639411
2.31404899501356
2.48119406600944
2.20187760598352
4.32152751635793
24.335496274723
23.2235230579605
4.20938158329069
4.13153549495486
21.9532283854553
1.91441768029174
1.16199598125032
1.14770302674778
2.2139717676544
16.77158846357
21.5703622277573
4.02313082196312
4.0320404901364
21.7662232103253
19.7543286317154
3.56330286586594
4.47948736759331
23.1043343602488
28.0427347187748
6.95379185218876
8.82402753572095
33.1647819017854
33.877403703449
10.507571208559
9.04019547928936
31.3622141300328
33.152364612907
9.31356389627859
9.79459887525601
35.5301315089171
43.0268369961692
12.5334808726067
17.3009193354408
52.3141179117808
55.2908775900156
19.3625523074075
19.5951381467607
57.3790142725617
67.0143990223527
97.1077151708809
95.2686748450969
31.6829207462453
37.9089933218359
113.882231750019
127.134768986658
48.1590475862193
53.8963588654673
146.721718549729
192.673942489385
59.6767066184222
65.8949784647995
258.227718954106
295.105291752127
66.8648905926557
70.6888616333842
283.723743002851
277.245725916236
68.4149802695037
70.4933417881194
277.806869461656
276.997981489945
70.9434220938651
73.6691150881096
280.326161540816
284.998950702208
72.8756985459563
72.5304198307751
286.32782574853
286.237434146726
70.9625087608112
73.7510478542722
287.309876294024
289.916883516775
72.9041068314376
71.7493198332575
290.100455226886
290.152908027598
72.6983319981951
73.3816792056391
289.770025580214
289.26838103728
74.7109546306494
72.0985829733713
288.064197128183
288.434650291703
72.8330694619776
72.4627337402185
286.626034652153
284.16844569675
73.0824633519613
70.4388280288689
281.265742580548
282.269992619548
69.6581397608558
67.0895577112355
281.87714760551
287.214289356702
67.8282311753407
63.7617558302758
298.845888915076
259.129140747865
62.4519177706389
61.9951815521041
247.735601496856
238.772614872474
66.3075576609691
64.9472234381552
232.991913354909
230.226806164675
67.3493236760352
67.0316034086419
227.441190871735
227.760373225997
69.7266802495848
68.7109834147518
228.152287375614
228.378320642289
69.6193275730138
68.437422638851
227.498690006361
227.753130680622
70.3130453100098
69.3306215512304
227.565180938094
227.722445243644
68.9035655064394
68.2579764537279
227.471012262486
227.232192041401
68.7961611390531
69.2221486546334
225.633548358118
225.171429207366
67.6348221927175
69.2556101065339
225.512007033286
224.946930163087
69.0262799123047
69.8403060783155
221.690410960923
220.503187227969
67.167188928962
67.7218188221091
222.221527019268
224.422667252665
65.7291112984151
68.8758871828624
230.974926267684
242.158194342869
65.1570695385185
66.3934172842888
36.5730238562652
23.9400849484954
13.298635190452
10.5588086351075
7.12133844054523
6.01130120475855
3.57322377295521
2.80099797683301
2.46875836969163
1.85856044552786
1.80229720415483
4.13578015393125
22.6569541189184
23.3843134181229
4.32675566001392
4.54525541683579
24.9493349681045
25.11881164887
5.0617660348208
6.76690453479326
32.4938828231545
30.9133804569951
6.54152481602005
9.70634625967963
38.6438264661574
39.9234712822281
11.5086268000487
9.66676099757852
34.4531318286019
36.6067285953284
10.0069783907819
10.3534558922438
37.3057293587533
45.293445751134
13.4488511248823
19.0725123288918
57.7641451142495
62.868260765121
21.2164223002295
34.9889974819415
75.5390184602806
105.86333971703
95.3246961613875
123.215433504366
39.7025244834118
50.1072214292241
144.620698610596
191.964554473412
56.9169432878996
72.4737499778846
290.987161019827
333.51984709424
73.4020256904907
73.9698277002167
314.919807487242
298.791682046925
71.3080522799941
77.1327985467062
292.091496253416
288.673872908433
77.9762562927125
82.232546052502
294.703581624207
299.842385034317
87.0192924860168
92.3446782475146
305.745388281183
309.705668091659
95.261438954733
98.8832307589687
310.525793153706
310.979457698961
101.386465823545
108.674498089496
312.938079812322
316.497429954997
107.357792630365
106.365469650024
316.229472941609
315.797261418528
108.103177425151
106.398839871745
315.375775471604
314.08206658719
106.513039849811
100.034457405116
312.26613487379
311.985475042882
95.2742497555354
90.9119737578088
309.719773030005
305.123597297731
87.7839598322716
83.4309611854635
297.862984682063
290.393252799214
79.0761308101798
74.3727298665756
285.162548774758
294.757593273762
72.8120775777896
67.9518451794352
311.180731630108
256.591499627359
59.3040032966253
57.7011193865799
251.847236378517
165.969089798632
44.0745278800142
47.2832178235078
174.479676117518
189.648656940746
50.5218937117876
53.9318792485944
212.4971270307
129.262382485978
38.4073452691341
40.6421534138811
140.936774215005
93.5904029771424
26.2827792796107
27.3386198506897
98.5004086632747
75.2067495748752
24.0980594848771
24.6141714053857
80.7032824140755
59.0909829175901
73.2852271189359
48.9245805345629
21.0597352510875
17.1522589437995
48.0446356385265
51.6549104165706
16.1191156202377
13.4819352026788
48.5274605498203
44.4207497509313
11.8034938750511
9.65113358673185
38.1640667346983
38.5776418906716
10.7733182510209
12.2296144025832
45.7242827025842
43.2678039218368
12.254305206796
11.37325525609
42.142931741191
33.317860997778
7.0995635608249
7.11481894446821
34.2657133665719
28.459008877488
5.77124115189329
6.21826497258893
28.4569466565355
25.6360320881813
4.48403289654778
2.57637322617698
18.8750453946573
18.142831090136
2.48994330427993
2.50551818934355
17.9956480171194
17.3751023023983
2.34165278488123
1.27912247059674
1.47435697751926
2.00336867865638
4.31547134523465
23.7983012931193
25.3019841673551
4.58831565840118
6.27788829482389
28.1431836572167
28.3050282473977
6.1620295247045
6.64557744145509
34.3885746591455
33.4314844286431
6.50628721156762
10.1151420000108
43.6771950693804
41.6939601814703
9.94516561847416
11.7480377480125
43.0870746042908
45.4258844488756
11.8704746508023
10.2938226459565
38.2789629907751
38.9185210620888
10.8273610302519
14.319933669662
47.6417850099467
62.76522470042
20.1233431251086
22.1199531664063
71.3769167291334
90.4907809677608
125.806520946634
101.560504680207
37.2981498769387
42.8326667507575
144.560531414084
173.319991694601
54.3146249730091
63.1375441578865
237.033333709074
343.557586831636
73.6436806949128
93.4284183646509
452.238244289799
422.269675334353
96.0275009134465
106.305088553882
424.972916735626
504.374050913662
133.478865589645
169.91514771435
641.633515489053
799.884870795242
201.962026455188
215.617675400236
845.560672409997
860.060695027607
225.86854657962
240.968190873568
863.410188171845
867.410850684298
262.720037206715
284.770601190431
865.609472613158
864.08398522663
304.481374355684
318.99329730239
858.185551698238
856.621707121586
331.738322005239
340.580345933897
850.55938758811
851.476782266182
349.677565681131
354.929982837416
848.358439474723
852.530617578865
362.096534667568
370.014381391141
853.001911296189
858.798024058893
378.064668969028
377.089621353823
867.371813253621
870.331470283733
371.654219176866
369.077031987492
866.301907675217
864.550908422319
376.578710627172
380.535827052853
864.226623706996
862.259578749086
373.383500251081
372.052729593719
866.155799858535
862.790730848194
370.347396034337
369.433944886552
865.298178931783
861.82997410457
361.195821596698
352.706016494031
863.469342444646
861.510192781637
342.923039286556
332.789533184356
866.657706117907
867.751817852318
318.897079385583
303.344586846444
875.05841915243
877.526017565373
283.090301024018
262.684944261854
881.853234693987
879.812210595817
242.586298555288
228.611531103102
876.67505478499
860.449855454174
218.16566866632
203.13758263753
810.682005203331
646.249012213034
170.931387527337
136.146682842507
518.130930406718
458.957327996114
111.228011277243
93.6916133543607
459.011276025691
325.550115337777
67.3005031837237
63.2694920203121
298.859527814806
281.404689837251
61.7167113591424
58.9863279311788
265.337257904127
335.554602958984
71.2557441332652
77.9932766723959
367.146617887391
408.043065130127
84.1578621479254
100.088973327192
400.176311139475
434.968773028458
121.883715194807
161.09587350072
586.907664634871
704.749700871246
194.59902467578
207.475402185568
741.721615060097
756.109801749307
216.679240059095
224.59809248108
762.222012098245
768.385679258887
239.791379449893
255.754905867005
766.115167277415
768.042645322749
273.557518678018
287.759812038066
762.242949960031
764.401619902746
301.064401101602
310.783006371916
759.617491144983
763.303882291059
320.32361337384
328.168888331511
761.829772475519
765.858447354648
336.296135292193
337.245520069417
764.579935279783
767.494364256028
339.867229436737
340.893156373061
764.345961573593
766.314113316793
347.38552812456
343.489331708772
766.850756409977
767.50002208322
337.48629803606
339.844449801681
770.680383389836
768.891609487426
343.620345636017
344.49526596995
760.937578836891
756.443941864916
337.275865875389
329.594096603772
755.427717804827
751.243756501423
322.588516625584
317.664968905691
754.171301650149
751.327902478601
308.485678279887
300.302295031314
756.852567971412
755.157963059527
288.102536562404
274.791904597317
759.504653152307
757.082405485306
257.528052899248
239.532634870779
756.947216924568
749.622999987712
222.721430281757
213.838394875316
743.716418245206
730.304913287679
205.050193669518
192.957642531015
696.141442436346
582.161505304945
159.982002316331
118.483362530008
425.990493138097
482.787528159939
148.166507317906
174.333422720287
546.409688896875
567.443168885685
184.615598129216
192.556075724857
578.339902405753
582.400404319891
199.671113792066
212.114222594109
589.260805184117
589.484562437515
226.147775441856
237.914950888704
594.688384579864
591.949106994369
248.785486313449
258.715349172495
595.816172705365
591.249883852414
265.885920168115
274.236002835671
594.876157553468
592.558590936858
278.80605499532
284.84504611989
595.939319155042
597.3453778179
292.352752153377
298.2368627636
600.091938366562
606.684430481522
297.400295812616
295.493259948359
607.710598147818
605.472616997872
293.405678576517
297.229470907977
605.324823044012
604.718046365298
300.847815916197
296.015315849783
603.341182946815
605.534011666929
295.263565025308
291.80088094633
603.273571510979
603.547312728503
291.04119361301
283.695721493622
600.006829496624
601.084763771599
276.563394524928
268.3478572518
596.816487856814
600.82121921805
259.52583351243
248.698804328939
596.461494161894
600.581640443135
237.215631799393
224.772876561225
595.222971370012
597.293905886074
212.770509806439
201.130593542997
590.729087735523
586.42046490105
195.108847199419
186.921068441994
575.552758483504
553.638924609943
176.312855089944
149.403800968412
487.741211693078
400.233936606037
127.690222095363
99.8815032912075
355.242027150868
353.735421478776
88.3975064923301
79.0867468562795
319.202850591457
311.045120333086
82.9691860616533
90.552796276205
321.770673217531
334.106586393736
96.7085835469771
141.373020112698
426.507418722991
436.162954611969
152.727723577476
170.494746140169
438.797243986513
439.534268916111
189.541624283232
206.001131212267
439.593661166901
441.695498057877
219.298662908759
224.46296556949
443.65120630464
443.653070505097
228.751076242639
226.438126913233
444.628573089989
445.69263879033
227.284092979328
226.578578951309
439.731590189823
436.503331261798
214.592879998876
203.916110219593
435.728866845334
436.179720412607
189.570758319467
171.869041096606
434.581246431818
429.8459558499
152.712819764767
139.736166093036
420.298347233609
396.055678837323
125.648433676187
97.6827723052488
351.498402437021
332.918383842954
82.6451490114844
94.6375589013763
372.409882739229
375.976567716062
87.7519265664037
84.7611742861522
403.144386703523
315.682325141796
70.6737377841928
60.1007605512859
208.490790202191
298.660335805922
70.7216992031292
79.415547517022
365.474180529091
341.510640054675
80.2655095291027
76.079195053822
321.632362322831
310.000320207712
75.6088313741847
83.0254955819911
313.662730078109
319.566747954685
89.0193028152739
95.2646938636706
329.386580337242
335.620506184725
103.437953616121
115.368689531432
338.872885724332
339.826724407656
125.812910581182
134.951945841843
339.180033246996
339.115504802045
141.837930074299
151.439374201776
341.254156979373
344.979302413042
151.388349477015
150.702810955685
344.541085881886
343.974090018079
152.385022288284
149.268585100857
343.583539896835
342.709567399463
146.516052597882
136.702402289344
341.533473045104
342.471693770049
125.755877703715
113.875839369212
342.511264469007
341.237331985333
103.414840340386
100.003500011159
84.4123678862833
80.5688189821078
75.8829882357435
72.94583298648
63.0268993471198
59.6826637746059
55.5688322556337
53.4185287646865
44.0054070905637
41.9614163036917
38.1454076128481
36.7286686814298
34.0723397067007
32.3853348819772
30.590169663952
29.2896721458153
27.1802022088945
25.47274848582
23.5553853006027
21.918154038176
20.1273715212496
18.3422306138642
16.3087208427237
14.6952122420396
10.2775578554737
11.5562108111302
9.23623428737975
5.88578685841056
2.86598547404797
2.03207186927965
1.42542076513683
1.54008930246169
1.62321250796824
2.63630127511612
18.7887501579026
20.7415944184557
3.89659286497497
6.81271764833404
28.9047776351573
37.5527601561278
10.8097090144398
8.29724887788703
36.1597139745785
36.9700821226626
7.00232489201708
6.57107885911268
35.3627294339871
47.4441652077487
10.1397221910672
10.2161023209871
45.6470791514591
47.7108848864828
11.9666721804792
11.3672971838277
40.9905883375432
42.1373474294655
12.2110366451112
15.0314686756634
51.2872851092397
67.7525539275504
20.8211853300474
22.7223828756518
77.3084417331782
100.152754088733
144.752189350858
114.969914908585
39.0447467828064
45.1731865823658
172.711182643481
223.738656058223
58.5571767449158
69.3544663533951
362.165355900851
552.769830191861
84.8637758366907
139.988986972332
826.187155563947
775.594389454201
141.88226381609
170.91015178407
836.62484000451
1113.6813569899
216.907792163213
296.057764357456
1601.61353846442
2127.88377883243
402.1156600016
437.074146530559
2237.50355750417
2240.48896700564
436.988223575568
444.199416204158
2196.23613562741
2124.9065699881
461.064724718724
481.193273905451
2079.21004049047
2110.24700623229
471.199744567255
442.054205815858
2159.30269967492
2194.01917360858
415.447026628377
407.951272759303
2218.81235675688
2224.96125719114
404.749092918977
408.737678957241
2230.268626655
2232.6517196763
408.269495138343
410.957870206754
2225.42432554787
2240.80979311409
417.13092536355
416.157939052808
2246.60815524589
2273.81474700082
416.560164913111
412.486437640671
2264.60109007494
2243.61710627041
413.077297705051
416.860929803754
2245.90241879286
2247.23645690428
413.732731321528
415.479320701618
2257.46932248772
2243.68316486515
415.092090247043
415.117290112385
2253.93012685841
2257.3916093845
413.456205202828
409.431713288225
2253.17437784605
2245.5412236079
411.402732307717
418.142115160778
2220.21228484186
2185.35281731011
444.101235579041
475.187616309263
2141.16985249394
2115.22410103153
485.866317747098
468.696629818587
2165.74514887168
2239.1342637054
457.131490232996
455.485423222256
2283.44878044545
2274.73010511665
456.058638475682
412.759964549949
2151.76368837086
1608.42147968925
299.063811010213
218.370495922353
1147.63371712387
908.574550668048
169.605654933658
144.847189644617
843.21307864091
524.488246274723
83.2568059182744
76.8306308999136
448.888919447899
401.072295461899
74.651569244604
69.4757855205433
353.887365523531
529.270807981938
101.398143892346
114.354365190513
620.613753612975
726.780827574908
125.858060628002
150.327604557484
766.145681438481
943.153981575679