/*--------------------------------*- C++ -*----------------------------------*\
| =========                 |                                                 |
| \\      /  F ield         | OpenFOAM: The Open Source CFD Toolbox           |
|  \\    /   O peration     | Version:  2312                                  |
|   \\  /    A nd           | Website:  www.openfoam.com                      |
|    \\/     M anipulation  |                                                 |
\*---------------------------------------------------------------------------*/
FoamFile
{
    version     2.0;
    format      ascii;
    arch        "LSB;label=32;scalar=64";
    class       volScalarField;
    location    "1000";
    object      p;
}
// * * * * * * * * * * * * * * * * * * * * * * * * * * * * * * * * * * * * * //

dimensions      [0 2 -2 0 0 0 0];

internalField   nonuniform List<scalar> 
162506
(
83410.8066203012
83411.451185385
83411.1349560849
83404.883970729
83399.1340993563
83381.8702594344
83401.6627423121
83401.349595851
83379.9270184122
83456.2801137971
83459.5852852109
83430.9802434499
83423.4974254247
83417.498474181
83418.3525484446
83419.1652216189
83419.3489792274
83416.4471894999
83418.0633396872
83420.9233501726
83429.2015717893
83427.5277406539
83416.006242152
83430.901455429
83443.8316004523
83457.9061531487
83462.0193378979
83414.6640856374
83414.5421946621
83415.7438269791
83415.4630850199
83414.5533638238
83414.2165701569
83413.5081292084
83413.585802142
83414.3308443958
83414.5349152007
83414.2985275605
83414.1520656202
83413.2240805697
83413.2436474066
83412.0768606725
83412.0214308275
83410.7510647669
83411.6573598837
83410.5965651752
83409.1784997308
83407.0294245471
83395.3363806752
83403.062386697
83408.9854561688
83412.6923081811
83409.93978402
83407.8169107222
83412.216902641
83409.8324102543
83407.1854793085
83395.8028941529
83405.0105684994
83407.4796062226
83407.1629157441
83398.5588987135
83404.993159361
83414.0789791378
83420.8994956767
83433.6101129564
83414.4251680073
83408.7908988036
83421.7419728098
83414.0154485931
83411.1596625629
83412.843303643
83414.1141794786
83416.7519840585
83414.6596084462
83409.2612822258
83407.4761846669
83409.4258112784
83409.1436133461
83409.1175823679
83407.3618888498
83409.4029773731
83409.398091743
83411.179767389
83415.8791565938
83405.7487762374
83405.6724053096
83412.7881564928
83409.7544850542
83408.0211154739
83409.3207377397
83409.8147959621
83410.8898609876
83410.5167717519
83412.2255998398
83412.6390171472
83412.2466965709
83412.1275257774
83412.471288192
83412.5758494991
83413.9112457057
83413.8524961002
83414.4801700722
83414.6141084665
83414.8272474627
83414.6223190518
83416.3118952473
83416.5719572598
83415.4469302355
83415.5490608493
83413.129146237
83413.1531337547
83413.6264870917
83413.592671212
83413.4838678881
83413.9807224709
83413.4783715008
83412.9679855998
83414.6989116771
83415.1626717063
83413.1207817496
83412.6124389156
83410.8763710456
83411.9259961737
83412.6033320702
83411.9099687919
83411.8357261175
83409.5988074293
83410.3918701604
83412.2640172901
83411.2650953308
83409.7177944158
83413.8537216631
83409.8729022623
83405.1500511555
83405.0139960116
83406.4628591044
83408.7341087678
83407.5351415679
83406.4180998989
83409.6876659927
83409.5032360357
83408.790888161
83407.9739615759
83408.2054289136
83409.0042423869
83409.2795366734
83409.1090718255
83409.8963300224
83409.8821940882
83409.2533809672
83408.1705300033
83409.2911869452
83409.3944591167
83406.7261860788
83408.1339192894
83409.1500843692
83402.8828374794
83405.2599063057
83408.9363179522
83408.2500923589
83407.7274592236
83409.4281527482
83409.5012260782
83410.8232011325
83410.6649928717
83410.9554602077
83411.1096115766
83411.8101254623
83411.4557944914
83413.2583430632
83413.6220350466
83415.4604814108
83415.1790223083
83418.8696463887
83419.7101378742
83420.436222283
83420.6378030757
83417.7917922104
83419.1665687904
83412.771713747
83412.463418233
83412.6946098891
83411.3058775965
83412.340658373
83413.1983948901
83415.2224214303
83414.6552403442
83415.4088619431
83415.8826276857
83419.4478985494
83419.7359003992
83418.566898416
83418.4207563377
83415.916276805
83415.7248159622
83420.5141747636
83420.5315479504
83413.972518506
83413.2977335608
83411.4914795382
83412.8701039139
83409.5343472561
83407.8762576621
83409.4669844682
83412.0289897501
83414.63968644
83413.5969345144
83416.8559185165
83418.7624561914
83428.4630063391
83427.8826306545
83428.0868883058
83428.6786990738
83432.724264597
83432.5454972072
83418.287938974
83419.4723773441
83417.0334074575
83416.8582919894
83419.2395165835
83415.9372219594
83416.3131536942
83430.7581510984
83400.9226232911
83411.7814397229
83411.2221955267
83413.3471886991
83403.449498733
83396.6855033004
83379.7761354119
83404.0213299803
83407.6166034557
83395.9370680854
83400.5212535824
83407.061069613
83401.9870192639
83387.4009187538
83375.1031304271
83395.1974776969
83398.9011882802
83398.256828009
83403.4176684854
83404.6224372777
83403.2563228003
83401.7028771368
83405.6682906818
83406.6924575566
83406.3063435761
83406.0498604842
83408.8855715023
83408.5149359419
83408.6257077821
83408.928432298
83409.3541713548
83408.7626259028
83410.3710974876
83411.3741095444
83410.7757524469
83410.2606135017
83409.5884708997
83409.1275174191
83409.8399412258
83409.9912187085
83407.7504975107
83404.7318382987
83408.7356979768
83408.2804947894
83409.6830604143
83409.5950641165
83409.2837991772
83409.6869060716
83408.4842258485
83407.105024289
83402.7413902189
83409.3822494724
83414.4536698448
83410.8344313178
83409.1856936655
83407.2864482089
83409.7257310374
83410.5458717646
83410.649472642
83408.4120360607
83410.2693634763
83410.6211115457
83412.8772590895
83415.7577476413
83424.348015766
83411.320785689
83407.5259489567
83417.8337759231
83412.6544838921
83410.7737966889
83416.3591176255
83415.8229917042
83422.7670725377
83436.1379031216
83462.1548921123
83432.9725979135
83425.3097381725
83457.6581861711
83381.1711272751
83403.4669394874
83403.9428231187
83407.3559541761
83402.3493007909
83384.0825196474
83459.0791762764
83458.2186024681
83431.1224384937
83422.3166202069
83417.8334311331
83429.0369756018
83444.3432599789
83432.2710002243
83399.1002566327
83405.8757479476
83411.2969707972
83409.4754649552
83407.435577081
83398.6480784809
83410.6008992098
83413.0943058692
83415.0633109678
83415.3191527399
83412.5639356667
83411.2757574159
83414.6315178371
83414.8383749306
83416.6187032354
83416.3413253148
83416.1927745344
83416.6458542621
83418.6546470579
83418.8194017017
83426.6883515455
83426.3028967932
83428.9601195885
83429.3219344015
83426.7424890312
83426.3965601407
83441.3131530982
83441.6734621571
83459.5065303794
83459.463767998
83477.270757576
83476.8781906011
83452.3503373641
83452.9412267259
83462.7517150524
83462.136440363
83435.2240779634
83437.0735982597
83419.5218214823
83418.6838689668
83414.7083506859
83426.3153443374
83418.3358573334
83413.994735603
83394.0897103624
83395.5534189918
83398.2639326467
83394.2133719084
83395.3963271808
83407.4751714836
83440.520284895
83419.3740345735
83423.8137424752
83449.2606839128
83436.823435071
83419.4008199808
83402.2079794685
83390.4307445336
83434.7940179215
83407.3425684367
83394.6389223003
83395.1595301057
83382.7717329658
83387.118767811
83395.986390786
83393.0675846625
83393.2725114417
83395.4522071679
83402.4732279868
83401.3975969148
83400.7959264088
83401.1473370904
83405.6316643299
83405.5853784191
83405.5416004838
83405.4950989395
83405.8836497759
83405.5707815702
83408.9167673727
83408.7597487143
83409.0533877429
83409.118604112
83411.7641385905
83410.7598560837
83411.396218098
83412.6787063034
83410.989226367
83410.4125203195
83410.1193829031
83409.999599515
83410.2476349914
83410.6354863283
83410.483234253
83410.0778370858
83410.579172701
83410.6235715281
83410.594043247
83410.7150791068
83411.0799789053
83410.86371552
83410.6627368883
83410.8737651856
83411.0732957474
83409.9378167855
83409.3952541429
83409.7208960495
83412.7499273591
83413.1613738853
83411.407874311
83412.2214780027
83413.571662934
83411.2495947163
83412.2632321965
83412.8455710812
83416.9575476951
83417.9588183346
83416.430699087
83420.428527434
83399.0273765325
83410.7474624145
83417.2874244167
83413.1924103486
83419.4221715221
83421.2487408234
83423.9592764609
83422.0091322153
83429.0647085394
83430.534261489
83429.3903404082
83429.0884179437
83423.3746521194
83425.5131681524
83422.1079311051
83420.2437915678
83394.1187602062
83409.6840043983
83421.1991187191
83433.7903761688
83431.7056261546
83411.9834388267
83417.9148617344
83436.2254105378
83443.7153967493
83449.6506072976
83435.2147803911
83438.2335058264
83444.6580469202
83441.2488148432
83445.2141572286
83446.7922516716
83464.3051908012
83463.7063150423
83485.5105032826
83485.9700932565
83503.9271262293
83503.6130803467
83508.1045440236
83508.4320643602
83497.9603524933
83497.5411080798
83537.3311822231
83535.2833142305
83500.5336674901
83501.1010272678
83505.8259369112
83506.5553231658
83480.5752453256
83479.2778499029
83451.8781641425
83453.368248619
83437.9718758535
83436.7932017602
83418.2456715
83417.8029414805
83403.7442563835
83404.0030960295
83373.0419794389
83372.847537661
83364.3969071513
83365.6403413454
83364.62976184
83363.78501285
83362.9472335423
83366.0404753766
83364.2489922639
83362.1900148353
83359.3172266573
83357.7159943171
83389.1367326395
83388.1579491457
83380.3010157084
83375.6780090049
83405.7499205398
83403.5008273721
83406.0510010775
83397.504067353
83404.6423110852
83387.8887168763
83366.5173543373
83370.0962509874
83354.5097950672
83392.1627953053
83366.1187907154
83356.3039250616
83425.8510497332
83420.7987220236
83365.3789095007
83370.7825811568
83393.7748848575
83393.5005126363
83369.673541922
83362.4621223845
83407.8032246779
83380.7865720356
83351.3965672867
83359.4907442046
83383.1264401489
83374.6247741652
83367.4240982907
83368.6852463194
83352.6665815659
83367.6990283741
83360.9624934763
83354.4320137223
83353.2743346924
83340.4173358662
83338.7150106674
83349.3066413117
83323.8113403368
83330.6361995249
83313.0994032858
83292.9416855911
83318.4072668654
83319.9769927151
83358.4771691979
83358.414375749
83383.4989357124
83381.7559016893
83393.7748148118
83393.36163756
83392.7362355831
83393.2679331428
83400.8839142365
83400.5755454697
83400.8376921462
83401.5144735936
83402.2290805153
83401.4692622813
83405.9778115278
83406.3618141704
83406.8913653404
83406.8739754478
83409.998236526
83409.6072253939
83410.1450700621
83410.328646762
83411.3142858419
83410.8045324752
83411.7348098206
83411.0720323703
83409.970193363
83410.9160601232
83409.2039512167
83408.1591221074
83410.6826682482
83411.4493962706
83408.417781857
83407.7686709193
83385.3472835849
83407.053748046
83422.1221883151
83407.0549482211
83401.0495554165
83427.0096475962
83454.1026659966
83476.4790312127
83477.8616285821
83455.5746223373
83452.5249800439
83475.3569405216
83468.0396274883
83448.5533546497
83447.6582686229
83463.835584577
83461.7938908783
83444.4426876032
83430.5922457184
83442.1469603769
83432.5816761958
83433.0833055413
83430.6493774174
83430.7160710235
83433.5236605403
83431.7464918541
83440.562690289
83441.397048497
83444.1542971859
83441.9370098426
83449.5312483526
83459.165766545
83458.1866301444
83454.7281041185
83451.0588856479
83449.890072725
83454.8117398109
83456.2970117347
83483.0410571226
83480.8282195394
83515.5114831056
83515.1573807102
83545.8195050506
83547.9751561193
83556.6281295076
83553.8366664655
83610.9752917978
83612.3072364535
83596.9333571024
83595.9715458383
83572.0337396252
83572.7885136161
83544.7101473246
83544.7950192621
83560.6140192147
83559.6256548387
83513.084472078
83513.8627101606
83475.015512207
83473.7260661009
83444.4486850458
83444.1593370308
83424.5661847485
83425.033934218
83408.8426318782
83408.8562568901
83391.4399978137
83391.460552887
83370.9456622063
83370.6571458034
83344.6575628393
83344.8096219002
83334.4199247606
83334.0228012633
83333.496261116
83334.9039597378
83334.1833029977
83333.3622040831
83334.0999279979
83336.4836499418
83337.4952798177
83335.8976166314
83336.9279631426
83336.6928365291
83334.4296870616
83338.2574842284
83357.7885686843
83350.5196549255
83363.4627490785
83368.181776586
83378.1909096462
83372.0541249571
83363.9338866151
83352.9651162385
83366.1326869739
83379.3979469252
83380.0059646213
83365.5207105215
83359.9798458212
83358.7323114166
83379.5840712446
83381.1785186697
83394.1290819962
83392.8882937675
83393.6791949619
83395.1185412115
83395.7376459665
83394.8474052294
83402.4380249106
83402.8279850042
83404.1499566788
83403.7669808688
83406.2495628386
83406.9030300672
83401.6686387541
83400.308643268
83402.8749159821
83404.4438126083
83395.9220560291
83388.6575354449
83396.8842804088
83405.4603625638
83423.6768809961
83446.2717774699
83418.7151124325
83424.6117938471
83444.3986889772
83457.7621056066
83421.5310902812
83416.9931650255
83423.4964620386
83433.3810143828
83416.3066953397
83417.3865948151
83414.372253175
83414.2002684735
83413.9268737794
83412.7777127551
83394.5588442315
83395.3917994299
83396.5052867482
83396.711970748
83405.8407162809
83405.016356577
83414.5204625961
83414.9188532155
83431.9937126538
83431.4249261776
83454.9774207098
83455.8733796718
83494.3952357711
83495.4093770371
83551.7544953683
83549.5441865747
83609.8047996718
83610.0988434217
83670.1280139007
83671.5670426785
83709.2556481761
83706.2565266525
83725.2057308268
83728.3282116753
83721.7008760739
83718.7570598892
83684.612049876
83687.2069295858
83637.8897730825
83637.4974527985
83571.1942414662
83569.6146104617
83510.1622491574
83512.046969525
83460.4436087257
83460.4429328462
83426.9144093697
83426.0475535094
83405.6423317535
83406.5516044684
83381.8488499275
83381.1462887763
83347.457555421
83347.624391392
83310.9035013697
83311.7909822597
83316.0754419627
83315.8951476548
83290.7245723041
83290.3371634732
83293.8048106583
83294.5783770868
83303.3037289837
83307.1964332084
83306.4318623298
83302.5933103122
83276.4788537161
83282.2832245435
83284.9882634678
83278.4848061743
83282.9956693587
83289.1113769795
83310.7801588338
83306.5519339615
83310.4697249254
83314.4694947082
83319.2190119503
83314.3005433548
83317.1016936643
83326.9056664616
83325.4900871234
83316.593198412
83338.1683816404
83338.2773813207
83334.1669625101
83336.9136016339
83334.2966438006
83330.1733857067
83320.9756079505
83322.6500421569
83325.2372999703
83326.8175015504
83357.8748652705
83358.0898169358
83380.0290033887
83379.5166314727
83384.3055940344
83387.4303248025
83389.616701897
83382.4375806277
83380.5457159463
83381.7291528041
83382.8440272222
83384.7463826414
83383.5059321301
83388.1163341186
83391.418655464
83372.3159559566
83374.3901895235
83388.5514711997
83384.4405191836
83389.4291263274
83391.5584518622
83398.6064956541
83393.161669331
83399.487043342
83399.3289020682
83404.1144138855
83407.1683887943
83379.0080183987
83383.818719639
83384.5969406868
83381.246122952
83381.5148945863
83384.0040786271
83399.6510628354
83397.8693994544
83376.4561403709
83372.0772515868
83373.4515546107
83374.2004804392
83374.5346422427
83374.0653658683
83381.3906396584
83381.1586692356
83387.5498392457
83388.2549156174
83401.4541672187
83401.0724506025
83426.0214052069
83425.7439495286
83444.1737189133
83440.7432391518
83448.7400334892
83451.7369050463
83476.6148612298
83475.1898309428
83504.2054292635
83505.5619230218
83539.688660408
83538.7506595251
83583.7064052403
83584.8921695083
83628.8071265661
83628.1253018859
83669.942133339
83671.2392031367
83708.4151117299
83707.5219971042
83737.9829735405
83739.2017939326
83755.8861253902
83755.8024756048
83768.7633541947
83768.8908401679
83775.6287884824
83775.1865468759
83769.84287415
83770.275108734
83754.501876264
83753.8343361028
83731.1549180813
83731.577321829
83703.9336732943
83702.7400421805
83663.9533568142
83664.663922854
83620.7767643067
83619.6444204345
83574.1094135059
83575.2381993371
83532.2359108482
83531.2786309819
83491.0997383436
83491.9359304189
83462.3500413417
83461.0149735204
83439.091253542
83440.2157490761
83418.7148728068
83416.418119839
83408.3350749436
83411.1846852275
83418.1526686788
83416.7061754942
83456.5300009853
83456.4844227905
83475.7888456106
83475.8554285629
83510.2968001062
83509.9001377017
83541.2292484537
83542.0779358716
83586.4626139515
83586.8293585956
83620.6631680185
83621.3382999775
83667.6472280967
83667.9970275144
83695.1044376228
83694.7349137487
83720.5840088818
83722.1641317827
83739.340917243
83738.8663189837
83758.1990130936
83759.9923200238
83763.6329244988
83762.1806314132
83751.3072882795
83752.5777455326
83742.8110256361
83740.3311268044
83727.397712936
83728.0248492803
83706.8610727978
83706.1402269063
83665.8149377989
83665.245302346
83634.6021951971
83634.540119807
83590.3464520114
83589.3753500201
83555.8850617765
83556.3254124926
83517.2229057029
83517.4454061719
83492.7816396147
83492.1065533181
83449.2309747009
83452.1411488222
83450.387064849
83454.8175040638
83452.4161725791
83451.1112136021
83446.0389277556
83431.9649965192
83410.7683671571
83386.5081579224
83371.6927881133
83369.1417142776
83377.6861516337
83366.3550762095
83361.4804523659
83360.9396370504
83363.4240666735
83363.6137806888
83324.0640007334
83326.5506988945
83324.3479422065
83323.0025661909
83333.6896485835
83328.1889716026
83369.3622370472
83363.5890305599
83367.8135710342
83372.3923592656
83373.654486502
83369.687184057
83374.5731037375
83379.9531637985
83340.7712433455
83336.6766003045
83338.0540248764
83342.7436510497
83342.4562375085
83339.0618816277
83334.373470457
83336.7421469205
83354.8635694388
83350.3714506343
83347.3720235995
83349.1161470486
83348.3259526617
83347.015046578
83350.6332289938
83350.7719242638
83352.3945609363
83351.1847127393
83357.1232833096
83358.201713108
83365.0019744005
83361.7461086541
83364.6377926772
83367.4289913506
83381.7673887778
83381.1062237849
83397.3840985243
83397.1690131248
83417.1960743947
83416.9287699848
83444.5471774181
83446.0969107162
83484.6267456845
83482.8338607526
83536.970255572
83540.1885195114
83597.1273130798
83593.0124183358
83646.5784730884
83651.6599286994
83694.0630240245
83688.5612574798
83723.1592409771
83728.8833408746
83748.4663543785
83742.5772636933
83756.0865237429
83761.8805085083
83765.0082593176
83759.3238237535
83753.8669364452
83759.4805836334
83747.24323034
83741.5503081964
83716.1101220149
83721.9623948611
83689.078292123
83683.5109807048
83636.7529728114
83641.5694763398
83587.0725930592
83583.1719666689
83524.4682254302
83526.9630879006
83474.6815631332
83473.0736704927
83431.687960239
83432.3569245169
83405.8805424883
83405.3321664614
83387.631164206
83387.6990162678
83375.5793815078
83375.4891686336
83369.2826642646
83371.0709174222
83398.7510323868
83395.6644154723
83394.8510543788
83396.4086648131
83349.123061215
83347.94385214
83299.2078116518
83297.2380140849
83248.7635065634
83252.3946977188
83277.3461740182
83275.9192183704
83249.0940285715
83250.1567735195
83265.6602586503
83266.3354520299
83252.5658113074
83250.8022009622
83262.873408662
83264.4892109519
83249.829891208
83248.0828063521
83260.5743103998
83266.1379564221
83269.7297380004
83263.1677622539
83267.8092599108
83274.9253776144
83278.748060853
83273.1684055988
83275.1581364643
83276.9164535864
83295.1335743239
83290.3574792818
83292.2819452462
83299.4804108268
83299.2095298394
83294.1956313195
83294.6333890006
83295.494724002
83315.5931087875
83313.3568637611
83311.4838338751
83309.3028058167
83305.2216357983
83312.1441999999
83297.0354999705
83287.7789768143
83287.4279691369
83291.1044214595
83295.3541822965
83299.0092504059
83296.0908490648
83294.0203496256
83289.7854430797
83293.7663069513
83327.6389738608
83326.0938530239
83326.7282559755
83328.3454377375
83359.8495097598
83361.5199998549
83368.5170961376
83322.5873402697
83322.1759650012
83325.9925737923
83327.900000862
83290.7453253235
83287.5537776131
83284.0853172309
83287.5589126283
83278.4864043107
83276.2006236278
83281.9370465348
83276.9276267773
83314.70316365
83306.4790827734
83307.586054455
83311.4885472399
83334.0379378025
83334.6401446383
83335.2063754424
83337.9781580335
83306.1170431121
83303.4606585636
83298.4319045787
83302.4398083225
83298.5594461513
83293.1505680541
83290.6480458412
83295.3352298479
83287.0428865664
83282.6476398994
83293.2238755741
83300.0965712919
83291.4419638012
83289.6643287565
83287.3124941857
83287.640410696
83281.2164617733
83281.4678851222
83271.9735577634
83271.6783155484
83256.893663226
83258.3766738688
83256.1154433367
83255.7677831949
83243.208008912
83244.4187192046
83228.7761078134
83228.5228571536
83203.3421778432
83204.5695874926
83180.7667458265
83179.2165529075
83170.3627646758
83170.660449746
83155.3685449114
83153.0822641404
83137.0421849824
83139.6139081873
83131.508545404
83127.5231950142
83128.0945634472
83132.0167154007
83134.1366941139
83129.1692683327
83131.3842350958
83136.6185878921
83138.5091651972
83132.5471014248
83130.3215379351
83136.7166356063
83134.9195229929
83128.2936235467
83122.1403658272
83129.2711027182
83125.040114934
83117.7519119748
83110.1695730327
83117.6849581735
83114.7381197825
83106.9088513552
83100.4343512519
83108.1887409928
83105.3607342526
83097.4669041863
83092.5778394274
83100.2430563465
83099.7013818006
83091.5842699803
83089.0899621888
83097.21526468
83096.3365875933
83088.5845741922
83090.9135795652
83098.7340125711
83100.0382531533
83091.9812342901
83096.3990957389
83104.4049473103
83105.9130009024
83098.2898130473
83104.4506751713
83112.3213095118
83115.3638868696
83107.8526806694
83114.1989614073
83121.5477572449
83124.119043488
83117.0241957834
83121.9411894378
83128.5643571111
83129.4694838497
83123.1743889466
83124.1678273475
83130.0617001035
83127.3703742591
83122.1074551526
83119.7448911999
83124.7087826846
83122.3443657064
83118.3509276882
83117.5728599829
83121.6400979155
83131.6991148649
83129.0869316179
83147.1592716011
83149.41798767
83166.786640778
83166.6496073468
83177.343524104
83178.835819676
83207.7941897297
83207.1063617892
83226.2202705629
83228.71995919
83246.6947326448
83244.5106211723
83273.6374298148
83275.0946455922
83309.0883700562
83308.2917242339
83340.3537076302
83340.0272138212
83342.3701291986
83342.0775397581
83304.378035673
83304.9584889488
83266.128946309
83264.5441450109
83254.5238383815
83255.1716833426
83243.0098558323
83241.4545925532
83200.0999569755
83198.5650047213
83192.8280386638
83192.8975772058
83182.2801078079
83183.262757184
83182.2407445793
83180.6306526645
83189.8098405207
83190.9419793875
83204.2263895866
83203.6238032617
83214.2284582982
83215.6238323185
83227.5531580577
83226.1801271178
83232.1948760565
83234.7247753501
83241.6263283418
83239.2265642079
83240.7897708735
83244.1629412282
83248.6887628015
83245.528413169
83244.0170101907
83247.3235613965
83248.2249202605
83244.6648303215
83242.8294086619
83245.0268555091
83249.6824663232
83246.5725543677
83244.7996981663
83248.4136714914
83244.8367579178
83242.0168545166
83240.926238792
83243.4700528935
83248.9326589201
83245.3695498535
83246.9787828308
83250.2692645224
83245.1498180778
83242.9383245089
83244.9453287927
83248.0332192335
83249.9538379938
83246.9264806633
83249.7966206586
83253.1905302365
83249.634557419
83246.5558100122
83248.4943917394
83251.55591526
83250.393435141
83246.8998638298
83246.87444529
83249.4091575191
83243.2385367133
83240.4148499836
83235.4331433215
83237.0469480569
83225.4584507936
83223.8767717087
83213.7589888801
83214.4565617969
83201.9937130323
83200.7034746525
83191.7750725173
83192.884446666
83192.1149927801
83191.578967971
83200.1410945665
83199.9992674294
83204.60474308
83205.9873028568
83247.3545244938
83248.76222963
83250.6400855099
83248.9488823604
83255.7364327119
83256.3938370918
83259.0631209057
83256.1622589045
83266.7129846675
83267.7969184304
83285.5556555175
83282.3678764151
83306.3453944667
83306.2689275878
83326.883679192
83324.5080190977
83346.7929547393
83346.5015293407
83362.0734955011
83359.6888605238
83374.083180587
83374.8305423015
83383.6574315432
83380.963801882
83386.5747315983
83388.4404109544
83393.8635563412
83391.2363760593
83400.7571190097
83403.4845986421
83404.53460261
83401.4632182893
83397.6391452878
83401.184336744
83402.2267838131
83398.7944113121
83409.6752986792
83413.541963662
83413.2200260605
83408.9509970409
83397.6661036338
83401.5054621269
83401.0615837656
83397.2903311259
83405.1410389426
83409.4882192484
83407.5890575903
83404.2492466705
83394.5318855938
83397.0762881412
83394.5842674543
83391.4672856005
83388.9389414745
83391.6554501147
83386.8631182634
83385.2127049198
83373.5008860499
83376.3094771401
83365.2883240645
83364.5862980574
83350.0434059911
83352.356413522
83336.2788751533
83336.5834415184
83314.8233725414
83316.9504063982
83295.5584847706
83295.6571246498
83269.9247998253
83273.2696455284
83256.5069586947
83254.9590249853
83246.0563252831
83249.0648955528
83247.3967309619
83246.7309561953
83241.856648487
83243.5596980768
83309.925476403
83307.2573295527
83303.407462662
83304.8002751309
83303.8940888137
83303.5139990594
83348.8515692051
83349.0616180249
83359.2304877768
83358.5179719112
83377.7955045263
83378.9985458467
83416.279077876
83415.5751870551
83333.2524290624
83336.7264698145
83385.9772405509
83382.8353258825
83443.280196008
83445.352673252
83494.5001773374
83492.5502331688
83529.6518201723
83531.9760483692
83554.9403955549
83552.3694885601
83569.3388042655
83572.5008406217
83577.7174650266
83575.0615028672
83578.3266821991
83581.0734161188
83580.7716200319
83577.8917171631
83569.7164864995
83572.1903338808
83561.7980510674
83559.0218054239
83535.3361838856
83537.6839753225
83504.7199320294
83502.6967094236
83454.4875378945
83456.5796593628
83398.9278913765
83395.9416145812
83344.8299655682
83348.396117761
83320.9884118507
83318.3555629621
83314.3743939469
83315.4906194072
83308.9962598282
83308.7531841194
83254.4712767339
83255.6113619608
83267.5338119857
83267.2349033028
83276.3842606654
83277.2690349105
83283.5002070846
83283.3270935757
83305.289489733
83304.855321393
83312.8959767264
83313.8566780895
83310.7156019312
83310.8759242444
83309.1714278983
83309.2982719328
83349.6808090913
83348.6650518175
83357.5671993275
83357.6112153038
83370.122976836
83370.5143962485
83391.4075228289
83390.6195112174
83427.684450194
83428.1851579951
83482.4759260855
83483.5974007125
83544.8249375411
83542.2400915327
83597.0298169878
83600.3767205814
83641.5374098089
83637.7463991071
83669.4048910527
83673.3211515617
83690.3065805895
83686.2856028562
83698.3560826311
83702.2138118526
83704.3164539632
83700.4955897648
83695.6178774297
83699.4306557093
83689.3539760883
83685.5017546644
83662.3079492268
83666.330520915
83635.7702119344
83632.0443499642
83586.5062028377
83589.9256982602
83533.5530953068
83531.1882391753
83469.2719050682
83469.9021808984
83476.5823279509
83484.4951073889
83495.0320481289
83511.2205094858
83522.2686780001
83515.8059486349
83502.7178358166
83492.4958804591
83477.947390886
83464.9269461071
83455.8377599276
83447.7415096354
83445.4219853453
83443.5345149856
83446.67120256
83448.4082721416
83455.5465841629
83463.9414955227
83472.4722566082
83478.8876909759
83477.6716626852
83470.5191915607
83447.6009222591
83407.3855292244
83377.5795299766
83356.9635307215
83270.9363746347
83269.0996259636
83267.4080456405
83324.3255942571
83313.636536326
83321.9176948811
83275.4806684687
83270.8213700061
83287.6265399852
83292.4470858614
83273.1018020878
83270.8690185558
83271.5727038929
83273.0676982891
83261.0179059843
83265.8951313885
83256.7207970741
83236.4988605847
83242.9492105964
83256.9518068309
83266.2028913239
83274.7595335818
83269.6071148693
83266.6649798185
83281.7687578826
83280.9090656208
83279.112120344
83277.0671791566
83269.5248375166
83272.8206507422
83264.6096054067
83259.8834349817
83253.2884020557
83258.0861715247
83248.9463836088
83244.9735582092
83248.5466772618
83256.1941312741
83247.3668389263
83244.1674154732
83241.3311633848
83243.5843020187
83233.2771926964
83232.2057520407
83221.9686272608
83222.157170721
83201.1838333827
83202.0683723338
83188.0493979735
83188.9570543273
83170.3140691672
83171.2841760668
83154.7176394058
83155.1124407262
83130.7300353542
83130.5407102988
83104.0453848161
83104.8993479645
83093.1484252187
83092.7614126162
83089.5047101951
83088.6595916028
83091.5739927731
83093.1789586823
83128.4673999823
83127.1753893839
83228.8198821876
83229.9918388724
83366.4657958327
83369.478683994
83425.6436906382
83422.1190203774
83365.8989206892
83365.8711088474
83230.511375266
83229.7512763743
83125.3224478094
83126.58907446
83051.6662948663
83051.1380944592
82997.1545625219
82997.3420374649
82956.8000325055
82956.7294821764
82928.3925020902
82928.4117116065
82905.294036194
82905.3895425864
82890.8019358355
82890.6008729656
82878.3956510559
82878.5710109326
82872.0678361247
82871.8874143149
82867.7158956291
82867.9546373811
82867.7679627228
82867.5348353852
82871.6481712944
82871.8542783324
82877.7539598587
82877.5487985504
82889.6965873044
82889.8668058394
82904.0916744868
82903.9550753698
82926.4928992333
82926.5739297891
82954.7141957398
82954.748652802
82994.8637791252
82994.5254572828
83048.7939057169
83049.5331981837
83125.4938660059
83124.1346403437
83230.6378872222
83231.5765144464
83366.98348317
83367.3186714242
83419.0250329189
83422.3639035839
83361.3481947759
83358.9153983991
83223.1341998346
83221.482418307
83123.9435502692
83125.8649716313
83094.6442855326
83092.9495380281
83090.6258354671
83091.7219597583
83095.2057447128
83095.6671234172
83106.4705167226
83105.7768396458
83138.3016484903
83138.9196123468
83155.601597217
83157.1401093023
83179.3413068857
83180.3295287422
83184.2359882458
83184.4567468982
83200.7960515839
83200.3074430124
83216.0519965861
83217.0673554269
83198.5288301068
83196.0591536324
83175.421913929
83177.8889440377
83164.7282685822
83162.392583777
83144.4033205007
83144.4278088721
83112.4546958295
83112.41806311
83099.8395314689
83100.0589746066