/*--------------------------------*- C++ -*----------------------------------*\
| =========                 |                                                 |
| \\      /  F ield         | OpenFOAM: The Open Source CFD Toolbox           |
|  \\    /   O peration     | Version:  2312                                  |
|   \\  /    A nd           | Website:  www.openfoam.com                      |
|    \\/     M anipulation  |                                                 |
\*---------------------------------------------------------------------------*/
FoamFile
{
    version     2.0;
    format      ascii;
    arch        "LSB;label=32;scalar=64";
    class       volScalarField;
    location    "416";
    object      k;
}
// * * * * * * * * * * * * * * * * * * * * * * * * * * * * * * * * * * * * * //

dimensions      [0 2 -2 0 0 0 0];

internalField   nonuniform List<scalar> 
208838
(
0.015006400335287
0.0150046173993201
0.0150016066591698
0.0150014163312155
0.0150020706091702
0.0150019852154273
0.0150018382420662
0.0150018208685246
0.0150026528247458
0.0150028172270977
0.0150031730099621
0.0150035346963196
0.0150034575403259
0.0150043954626014
0.0150041236791232
0.0150038956828013
0.0150036770878476
0.0150035495265115
0.015027238839339
0.015025489041573
0.0150281278007727
0.0150271808562764
0.0161404817591194
0.0162313391695771
0.016329776578097
0.0163504213203819
0.0156039767205457
0.015596279685799
0.0155550380193059
0.0155120830744302
0.0156797256393374
0.015015300180758
0.0150135272922012
0.0150126756841695
0.0150110504459109
0.015010381875426
0.0150065074905926
0.0150071336163451
0.0150076327033626
0.015007648924612
0.0150075463089065
0.0152913916109916
0.0152993535475443
0.0153095416767882
0.0153183841058147
0.0153097159445853
0.0153026482890021
0.0157122670085016
0.0150170270198988
0.0150090044898803
0.0150025616579493
0.0153281668391113
0.0158467498680412
0.0150144489101327
0.0150260689391455
0.0165063080829858
0.0165336076782131
0.0150240315940821
0.0150130067677701
0.0150030160782379
0.015362587392173
0.0158947678198974
0.015853965538069
0.0153233662398658
0.0150012847499018
0.015009216746666
0.0150037745260793
0.0150016129422239
0.0150023700588338
0.0150037642097718
0.0150036984840197
0.0150023925065272
0.0150002871389198
0.0150007963031505
0.0149995358710234
0.0149998687747908
0.0150001486882703
0.015000356794784
0.0149999520718624
0.0149995897769964
0.0149994374189571
0.0149993270122011
0.0149992631092243
0.0150002150114171
0.0150002124141933
0.0150002140026169
0.0150002104143242
0.0150001328428463
0.0149993191427504
0.0149993707110059
0.0149993644277453
0.0149993589889632
0.0149993587998979
0.0149978974722968
0.0149978908505696
0.0149979375239889
0.0149979907772451
0.0149981923229296
0.0149967642914686
0.0149965580444536
0.014996506490971
0.0149964588011741
0.0149964980830579
0.0149970478341453
0.0149971754960723
0.0149973748122222
0.0149977301924098
0.0149984462928377
0.0149979162113578
0.0149969931718108
0.0149963830990126
0.0149961579040925
0.014995918538887
0.0150037590503094
0.0150039571545949
0.0150039764801641
0.0150041094090348
0.0150053864694087
0.0150733982910563
0.016944776772831
0.0167918793723256
0.0169420626416568
0.0171054948923465
0.0171395769277136
0.0150400274764237
0.0150360840816986
0.0150396904090198
0.0150374447734185
0.015053470984588
0.015056794452784
0.015053008928043
0.0150576951024929
0.0181525856936385
0.0180986821524621
0.0178494054472319
0.0176184653744905
0.0177264838330792
0.0150857725280097
0.0150938191045943
0.0178937653406554
0.0170477133173251
0.0150839638954444
0.0150301745810363
0.0163089935110479
0.0162929430357317
0.015032230814641
0.0151175459561213
0.0172975945335125
0.0172888743064876
0.0151706618199398
0.0150818039352104
0.0171169569266577
0.0164077600266069
0.0150229808613566
0.015022067211607
0.0162490840012723
0.0157551047124522
0.0152666637344967
0.0150021296089826
0.0150101859965186
0.015006658999026
0.0150018324906924
0.0150006589909318
0.0150032080319036
0.0150014455014483
0.0150003960044688
0.0149998677566665
0.0149996228901438
0.0149989513764085
0.0149995984183293
0.0149994443876298
0.0149985593309502
0.0149984284906363
0.0149993525949901
0.0149992318711808
0.014998242140777
0.0149980144139902
0.0149978341338974
0.014997786759429
0.0149977457110861
0.0149977420909014
0.0149991942611465
0.0149991959060051
0.0149992027895712
0.0149992143349742
0.0149991784353291
0.0149992203507693
0.0149992472623699
0.0149992366508268
0.0149992311396049
0.0149992295679746
0.0149979646724598
0.0149979692635686
0.014998001899957
0.0149980489950971
0.0149982018937811
0.0149977658486387
0.0149977368358013
0.0149977338803038
0.0149976277692674
0.0149976364758193
0.0149967590235976
0.0149967547901422
0.0149968461180041
0.0149968655774945
0.0149969765200886
0.0149973100909972
0.0149974086384877
0.0149974511817471
0.0149972592280924
0.0149972568179314
0.0149964280746546
0.0149963347098977
0.0149964007462611
0.0149963216659173
0.0149963015668312
0.0149977829481018
0.0149981323000355
0.0149984076098945
0.0149981974285514
0.0149983210396204
0.0149974548383991
0.0149977232611111
0.0149979913756753
0.0149986049309642
0.0149994193669845
0.0150077543718848
0.0150055607060306
0.0150056310794968
0.0150058766417438
0.0150057450635381
0.0150104431608724
0.0150106008132537
0.0150103480570692
0.0150098613614053
0.0150123544699949
0.0151013939058442
0.0185706247462233
0.0184929034018442
0.018818060333531
0.0191651267923413
0.0192418718970051
0.0150730775261252
0.0150692488668028
0.0150741074896899
0.0150700884125071
0.0150910249727292
0.0150944898185382
0.0150884714564281
0.0150906165429146
0.0205321467325951
0.0204279138152153
0.0199596354064921
0.019516364404795
0.0195461211217433
0.0151202474988824
0.0151180801975215
0.0199527329862441
0.0188532388115205
0.0151055311236916
0.0151262800373577
0.0192939787502026
0.0193265570047165
0.0151967184504599
0.0151807948606712
0.0182361292019473
0.0179539671291451
0.0151034913198756
0.0151528875071756
0.0178730735073838
0.0170102444466609
0.0151206121428699
0.0152863940033847
0.0168979189257262
0.0161215543902058
0.015037961886258
0.0150309605562522
0.0150119425503972
0.0153769493664658
0.0159844911821798
0.0157353336535766
0.0152922447687805
0.0150072701922641
0.0150217938099624
0.0150125057598937
0.0150041949181627
0.0150019551746595
0.0150071265549502
0.0150027675933075
0.0150004460856958
0.0149999535575135
0.0150007995762215
0.0149993678878237
0.0149996812575393
0.0149996962357345
0.014999274125157
0.014998903449445
0.0149996007437121
0.0149994154863892
0.014998522909634
0.0149987173768582
0.0149994699647375
0.014999279191625
0.0149984217871599
0.0149988338050536
0.0149994286214835
0.0149993628251946
0.0149993704807921
0.0149993601910727
0.014999356059841
0.0149993546803993
0.0149984313676239
0.0149984359553181
0.0149984564442556
0.0149985112333853
0.0149986337103878
0.0149988356826638
0.0149987910584231
0.0149987558136889
0.0149986989610924
0.0149986973451831
0.0150002618539943
0.0150002491442252
0.0150004321890913
0.0150003502683893
0.0150001718272054
0.0149986335512877
0.0149988406913111
0.014998941042688
0.0149987143666969
0.0149987360770781
0.0150018567674329
0.0150017901863288
0.0150022698846299
0.0150019516939581
0.015001391321856
0.0149994545682175
0.0149999050530459
0.0150000860632447
0.0149996529674085
0.0149996678921802
0.0150051213488573
0.0150050385785087
0.0150058932743979
0.0150054940099337
0.0150045822432686
0.0150020107741295
0.0150028203342231
0.0150033589392501
0.0150027748122243
0.0150029599917072
0.0150018535734534
0.0150021614177197
0.0150027102721628
0.0150031708141352
0.0150035624276742
0.0150112794275019
0.0150116267141938
0.0150115315811693
0.0150104347850789
0.0150101616935766
0.0150185393281712
0.0150187517301094
0.0150189443054033
0.0150178472356449
0.0150197608513611
0.0150309221670832
0.0150304205486905
0.0150323531236865
0.0150312348855275
0.0150310614971047
0.0151098225253928
0.015110030705564
0.0151170744084731
0.0151141678249223
0.020613841643688
0.0211914122709299
0.0217978413870957
0.0219323365470856
0.0234773121870394
0.0233094106922429
0.0225432518979467
0.0218108281589963
0.0151417741817466
0.0151442234341643
0.0151360644264733
0.0151318274889339
0.0150495857613025
0.0150496405506975
0.0150521403230266
0.0150490698899514
0.015047058317231
0.0151693121875297
0.0217563812381057
0.022530890774463
0.015152329266183
0.0151322451289079
0.0211783540833342
0.0219871967687672
0.0151396029768457
0.0152283240262479
0.0219969469298792
0.02057995353121
0.0152131921972257
0.0151439577058527
0.0199866532271888
0.0189086407495869
0.0151228690232909
0.0151876354418764
0.018843011906314
0.0189967603501664
0.015450926609987
0.0153527419424768
0.0178780319647447
0.0178177182236303
0.0152954034014713
0.0151692621101789
0.0168980488352729
0.0160817829004284
0.0153854142182468
0.0150141097520802
0.0150383830055238
0.0150247294739354
0.0150091693434351
0.0150107723311311
0.0150218752761669
0.0150224809744063
0.0150255987391298
0.0150286440514034
0.0150254894974381
0.0150270265643921
0.0150234405761254
0.0150143532204363
0.0150205221034165
0.0150305825676492
0.0159717196907952
0.0150161837125978
0.0150090040857431
0.0150190990777744
0.0150204612579168
0.0150058550073841
0.0150022658831298
0.0150040737789802
0.015001262353403
0.0150005630063464
0.0149999842093765
0.0150005543431669
0.0150002420722113
0.0149998198723528
0.014999792253518
0.0149995448880394
0.0149993213570453
0.0149997609928526
0.0149996604612867
0.0149991704959768
0.0149995191357499
0.0149997925687303
0.0149996163900668
0.0149991417680014
0.0149995692793797
0.0149997820750009
0.0149996228431841
0.0149992918129823
0.0149991110551597
0.0149990240718499
0.0149989723544396
0.0149989640975066
0.0149989599707823
0.0149995237097054
0.0149995249139367
0.0149995276661581
0.014999537149065
0.0149995490247424
0.0149997278103122
0.014999681421374
0.0149996777167249
0.0149996736353653
0.0149996740345803
0.0149994911611144
0.0149994909968608
0.0149994890169335
0.0149995285911992
0.0149995821903228
0.0150001873507203
0.015000200459758
0.0150001849629087
0.0150001578050371
0.0150001598765812
0.0149994345812258
0.01499943782978
0.0149994826312727
0.0149995176642225
0.0149995283034811
0.0150010704997484
0.0150012610559811
0.0150013559703504
0.0150011903939233
0.015001199944143
0.0150049849575948
0.0150049332578275
0.0150053635478774
0.015004969940561
0.0150044859218958
0.015003464777758
0.0150039574486624
0.0150042875154064
0.0150038403445906
0.015003895661072
0.0150107332154224
0.0150105846553882
0.0150114936310878
0.0150108101277908
0.0150099399181031
0.0150072545563939
0.0150082525228604
0.0150088776944055
0.0150079606699268
0.0150081246645459
0.0150191611154071
0.0150188114877821
0.0150203912373444
0.0150194416615181
0.0150178553791063
0.015014188094602
0.0150156892869988
0.0150163552092431
0.0150148896737722
0.015015121606878
0.0150117460380581
0.0150114293033637
0.0150126499230539
0.015011768320096
0.0150102602708338
0.0150242825375131
0.0150267559830327
0.0150280768523685
0.0150259370011452
0.0150264935244583
0.0150237698587387
0.0150238947057824
0.0150257896295891
0.0150252181289224
0.0150238067912192
0.0150428650963548
0.0150456673950194
0.0150473665249978
0.0150443859526402
0.0150445201696612
0.0150749964443536
0.0150744769072249
0.0150780102894287
0.0150754220170555
0.0150703801578882
0.0150697690897294
0.0150758385124854
0.0150805508008161
0.0150761214559408
0.0150761742838269
0.0151578751589557
0.0151693036513522
0.0151786970821136
0.0151761655159563
0.0231072763762071
0.0240177852602457
0.0249680506412562
0.0251715702349211
0.0269414050610449
0.0267028595332094
0.0255549067255637
0.0244514754121213
0.0152118173303423
0.0152140024047025
0.0152049434973604
0.0151886060702752
0.015107030397876
0.0151070567498277
0.0151113799678152
0.0151068093939654
0.0151010016187467
0.0152380858671044
0.0243164715179338
0.025614024966949
0.015221731800476
0.015181630389948
0.0240117164751367
0.0254043063333154
0.015187187306019
0.0152653241813286
0.0253590394427602
0.023582694667314
0.0152451958683746
0.0151830973098954
0.0225608802175574
0.0212014930985153
0.0151618999754696
0.0152834004483109
0.0211835392214317
0.0199414808601802
0.0152349245847479
0.0155583347563288
0.0202889125408942
0.0201162581401471
0.0154339402438291
0.0153699826529163
0.0188698510580585
0.0182153783994019
0.0152273251169822
0.0151566320323495
0.0174564205357774
0.0166561770723748
0.0150781746179651
0.0150435410908934
0.0150157845061552
0.015373497134538
0.0160751597308904
0.0160506648553704
0.0153594026414665
0.015012957706092
0.0150455683282016
0.0150099652233185
0.0150017460572339
0.0150003080716895
0.015002563568208
0.0149988455835332
0.0150006095303769
0.0149998331292494
0.0149998468690813
0.0149980783696841
0.015000200511596
0.0149997203477321
0.0149997483455687
0.0149997780585236
0.0149998370586353
0.0149998198460228
0.0149996560769469
0.0149998170323006
0.0149998805581451
0.0150000349123841
0.0150002153343413
0.0150001781068391
0.0150000403760581
0.0149998464803754
0.0149998106274922
0.0150001412357995
0.0150000166065989
0.0149997506310686
0.0149996880537613
0.0149996783848802
0.0149996822226022
0.0149996811334341
0.014999701398066
0.0149997209013521
0.0149997265692251
0.0149997329075232
0.0149996984204042
0.0150005348367976
0.0150006259400967
0.0150006514326931
0.0150006094462368
0.0150005793495081
0.0150024690195998
0.0150025026292679
0.0150026693358925
0.0150023265417179
0.0150020599928097
0.015001785352432
0.0150019569130349
0.0150021303085632
0.015001966559382
0.015001985668041
0.0150056088812082
0.0150055410640582
0.0150060349682507
0.0150054340085142
0.0150050142335283
0.0150109963203774
0.0150117598811263
0.0150129928320096
0.0150119159384289
0.0150120907034182
0.015011876927383
0.0150117249221682
0.0150126328014866
0.0150117861977869
0.0150109001196382
0.0150219057399333
0.0150233776917725
0.0150247746061641
0.0150231260456336
0.0150234708242932
0.0150224391289853
0.0150221060871404
0.0150237295295677
0.0150226557888368
0.0150212582330726
0.0150398911158018
0.0150419054274485
0.0150433201723025
0.0150408578293385
0.0150415024906225
0.0150373515098767
0.0150367007831612
0.0150390239177989
0.0150377997358311
0.0150355571092334
0.0150303495430761
0.0150325646789904
0.015033510148047
0.01503129541336
0.0150317757372492
0.0150580104227199
0.015057194883971
0.0150602092184532
0.0150590100596811
0.0150559892936564
0.0150463371670257
0.0150501115294881
0.0150519957468287
0.0150486255587864
0.0150495462958988
0.0150803459189671
0.0150795113010102
0.0150827707382374
0.0150809647282179
0.0150772465744231
0.0151087558615754
0.015112476093385
0.0151142131594199
0.0151110126131038
0.0151117977217264
0.0151061031210815
0.0151056337259077
0.0151090881302484
0.0151065509517213
0.0151014954683626
0.0151329292656354
0.0151380909920922
0.0151405709866762
0.0151371725067263
0.0151376089236458
0.0151384481536474
0.0151386186052729
0.0151429178372228
0.0151384974483071
0.0151331411836278
0.0152841246576986
0.0257483982687026
0.0259451752683348
0.0272710226831346
0.0286427344355976
0.028916017458595
0.015226306117307
0.0152414063871801
0.0152501061906154
0.0152482439390126
0.0152824558497844
0.0152839736501479
0.015275680129482
0.0152614542593645
0.0308492033562486
0.0305453530711477
0.0289603397864801
0.0274131642407546
0.0271777876031344
0.0153380427370283
0.0153595397470144
0.0291658247058292
0.0273495506676663
0.0152779266841834
0.0153175338376924
0.0295879911603164
0.0295566244868634
0.0153231904777963
0.0152903354264363
0.0273451737999758
0.0257850833404716
0.0152382382891608
0.0152081816945046
0.0240812692312365
0.0241245000650228
0.0153927696055198
0.0153340004479264
0.0225755356508342
0.0234665176461484
0.0157400657333187
0.0156537917196437
0.0217737715972327
0.0215297111998835
0.0154972680712755
0.0153086624389333
0.0201013242893401
0.0191355273518113
0.0152555967250608
0.015211739729514
0.0184253030162858
0.0171165653874836
0.015100804038588
0.0151571318228132
0.017085242490346
0.0161592747580437
0.0153957968058689
0.0150107711223396
0.0150453644975993
0.015024450271084
0.0150055678486179
0.0150048338305121
0.0150160779767127
0.0150081683332621
0.0150013717353487
0.0150006890507171
0.0150070695271192
0.0150006038100144
0.0149992373923282
0.0149993616936694
0.0149987582292359
0.0149989765872083
0.0149996389740151
0.014999448222117
0.0149987607943394
0.0150001369207226
0.0149998014607882
0.0149997737351764
0.0149998945891381
0.0150003724527724
0.0150001128399954
0.015000227214714
0.0150006193932385
0.0150028121748647
0.0150010901992965
0.015000187130502
0.0150015714348266
0.0150009074416351
0.0150009123299759
0.015000664095651
0.0150006605404119
0.0150006344192189
0.0149996796857257
0.0149996933749534
0.0149997087808027
0.0149998133586476
0.0149996245275195
0.0150016797415813
0.0150008720602968
0.0150017769942431
0.0150011891974737
0.0150012901280251
0.0150023747097683
0.0150025944544071
0.0150041269596379
0.0150055562775507
0.0150070867527652
0.015678260310296
0.0155122124637449
0.0155555901220682
0.0155968423604141
0.0156038672313728
0.015309116770508
0.0153186688711833
0.0153100728873223
0.0152997508957737
0.0152958832523349
0.0153026057190432
0.0150028531021229
0.0150140876816712
0.0157148907396049
0.0163163941381446
0.0150255710916641
0.0150224034291976
0.0150134246461078
0.0150119828604601
0.0150100849727227
0.0150079419889796
0.016354485068755
0.0163351703419221
0.0162364880346204
0.0161453572450959
0.0162990847172448
0.0169546231445768
0.0168028329489754
0.016953604036854
0.0171149333928844
0.0171459316847384
0.0150130982361423
0.0150167298941676
0.0150178398591993
0.015018960045703
0.0150602703987217
0.0150040002211561
0.0150038412114845
0.0150038752888316
0.0150034619291905
0.0150032321604413
0.015005574545305
0.0150058373732544
0.0150069992963422
0.0150063939056688
0.0150060745875096
0.0150048002126074
0.0150052651826926
0.0150064003782199
0.0150058914783023
0.015005918419284
0.0150119117274139
0.0150117426062789
0.0150129049970891
0.0150105985983146
0.015009896183939
0.0150184860445926
0.0150196490399741
0.0150235214795545
0.0150213633990841
0.0150217839611325
0.0150229396488103
0.0150225606165059
0.0150245022537072
0.0150224505643428
0.0150211460062305
0.0150375039993855
0.0150396688153192
0.0150426871883541
0.0150395485205104
0.0150402620542987
0.0150420911655261
0.015041418723706
0.0150441089924839
0.015042178928359
0.0150398353236265
0.0150682383518983
0.0150715939893265
0.0150739448458729
0.0150701325513327
0.0150712794142315
0.0150715361216005
0.0150704817065022
0.0150735359570267
0.0150720439525092
0.0150695006393416
0.0150638071585005
0.0150666235237169
0.0150679939467031
0.0150650532633513
0.0150660810543424
0.0150972869897492
0.0150963262229709
0.0150991771401764
0.0150978681360185
0.0150950957468282
0.0150871053868467
0.0150900685617415
0.0150912070794494
0.0150882817202533
0.015089029406544
0.0151209352038746
0.0151202249477225
0.0151230938283141
0.0151220162344819
0.0151190409033645
0.0151519616484259
0.0151551156529496
0.0151560901041805
0.0151532839583943
0.0151539741221643
0.0151440126431135
0.0151432539252303
0.015146408908041
0.015144771987221
0.0151409111743392
0.015174598607521
0.01517686330768
0.0151779238205173
0.0151751691520217
0.0151758689201196
0.0151683735487604
0.015167992139991
0.015170980345047
0.0151691883718201
0.0151659929626188
0.0151680142941531
0.015170818627483
0.0151744343229288
0.015170374765884
0.0151699640230753
0.0152024685055866
0.0152032293612304
0.0152066879968454
0.0152047778982919
0.0152143572941846
0.0154297447343031
0.0287883358641888
0.0292700031295769
0.0310819644516612
0.0328716884136149
0.0332023778895201
0.0152973973053254
0.0153100576515009
0.0153177364525917
0.0153229164447998
0.0162552629723881
0.0163545372112154
0.0164380696660505
0.0164461667235995
0.0351173927626481
0.0347842409698552
0.0330929940042344
0.0312321095523171
0.0304129009789594
0.0163731280676477
0.015897426955929
0.0328510148920514
0.0310629186788146
0.0154589834845957
0.0156014287964087
0.0344828084817373
0.0346191873234851
0.0154413802879918
0.0153697277147804
0.0319984591077992
0.0298260201871922
0.0153224256350358
0.015275524519301
0.0276909222441044
0.027761377512577
0.0155549999969283
0.0154676140752449
0.0258451603054421
0.0275243826046391
0.0159551803549324
0.0158337248540273
0.0253761543568476
0.0249837302846619
0.0155757852676363
0.0155338405287948
0.0231566968898916
0.0210868557141248
0.0153301121336993
0.0152828023524453
0.0200759401786193
0.0196356117382854
0.015520121738744
0.0154004415349717
0.0182028573899613
0.0180794809477768
0.0153618694280901
0.0150728967107042
0.0170524573526745
0.0162020272491414
0.0154565653999844
0.0150078717036481
0.0150429098227658
0.0150296453049734
0.0150050956867218
0.0154332768451294
0.0161407367575148
0.0168319784304886
0.0150440878694547
0.0150371521406863
0.0168233855416967
0.0161318986294129
0.0154329205557723
0.0150034263231214
0.0150260923519693
0.0150315692860884
0.0150042027689607
0.0154561346094626
0.0161910457669125
0.0170391005642287
0.015059092562559
0.015143965511597
0.0170559648989032
0.0170956576750711
0.015089166508367
0.0150724822907298
0.0166431114894792
0.016062982121663
0.0153675807919235
0.0150131311296406
0.0150364858459813
0.0150112972976909
0.0150021927516218
0.0150002347068321
0.0150030636045098
0.0150018051370817
0.0150001358927557
0.0150004599243338
0.015001761826442
0.015003748453948
0.0150010413134964
0.0150016222984827
0.0150051192189764
0.0150095136321296
0.0158965563758399
0.0153629236803
0.0150034586551553
0.015004304293506
0.0153281419168145
0.0158507014948344
0.0150160898827669
0.0150289724840582
0.0165124889600395
0.0173093375983236
0.0151298432145345
0.0150765961717118
0.0170593862771105
0.0179091399959058
0.0150801942488011
0.0150652040612542
0.015030168512749
0.0150293428293499
0.0150273224618708
0.0150231295915266
0.0181599672667102
0.0181120428277257
0.0178654717575808
0.0176345038839583
0.0177413959086302
0.0185877554162803
0.018516228779053
0.0188412688403668
0.0191848933609629
0.019252639620523
0.0150300197629121
0.0150346342136494
0.0150384390972693
0.0150396789819621
0.015071891661398
0.0150096964472702
0.0150111809688528
0.0150126571356475
0.0150105192835143
0.0150102719395922
0.0150183207215828
0.015018555646864
0.0150219747846325
0.0150192618501337
0.0150158389488958
0.0150256195278072
0.0150320123722063
0.0150363813675331
0.0150312147296832
0.0150310152168863
0.015037332419528
0.0150365200589165
0.0150400333682301
0.0150341328882779
0.015032156349293
0.0150529849938786
0.0150565739682506
0.0150650386203686
0.0150598577351881
0.0150611906566802
0.0150671582179537
0.0150659615088578
0.0150706087131232
0.0150665093010237
0.0150628803434351
0.0150939461932961
0.0150975622545316
0.0151015371606703
0.0150970299646595
0.0150981317575368
0.0151024711497027
0.0151014020182695
0.0151051090863172
0.0151028448732511
0.0150995182812487
0.0151008670921971
0.015103373729573
0.0151048026055427
0.0151018340838258
0.0151028239951432
0.0151352669519361
0.0151343124921534
0.0151372168688415
0.0151358575112903
0.0151332935594262
0.0151273714587003
0.0151301880783659
0.0151314296771844
0.0151286469122612
0.0151295696057663
0.0151632871716773
0.0151623918034684
0.0151650877779813
0.0151639691673107
0.0151609153271163
0.015196861380995
0.0151981204523931
0.0151987098688616
0.0151964334962531
0.0151972492788627
0.0151868513412451
0.0151862154009688
0.015188626274288
0.0151881448228615
0.015186793239093
0.0152218412239615
0.0152229954628305
0.0152228986294744
0.0152211600442182
0.0152216968892136
0.0152093775029919
0.0152088002933292
0.0152108364769311
0.0152105414880324
0.015209196252471
0.0151993237389436
0.0151985666124593
0.0151994413853725
0.0151970772977548
0.0151973562938065
0.0152475281389894
0.0152472831146269
0.0152485318959699
0.0152477960053915
0.0152615634735285
0.0153707652759435
0.0153140312819585
0.0153217295221761
0.0153245946742056
0.0153248733544765
0.0159771593844974
0.0159724205925551
0.0159360065190405
0.0158855160148834
0.0158184479859632
0.0178178173833897
0.0322065196400612
0.0340338566293277
0.0359167191581344
0.0374928107394127
0.0378190561140702
0.0181993089929727
0.0181932044349413
0.0180065584238391
0.0177746272539138
0.0192171137871046
0.0196200212312441
0.0200006400408335
0.020098037637308
0.0410740755260951
0.0400289929092339
0.0377413338093469
0.0355529770732237
0.0340240911209775
0.0188590729085778
0.0182763631587185
0.034430480873729
0.0336816114586103
0.017806117373013
0.0162611646541998
0.0335662828742952
0.0347784523093
0.0166795780580623
0.0176050310919927
0.0354158801870648
0.0372778753413349
0.0186628511898983
0.0181641629055691
0.0438093510218702
0.0455369645439313
0.0161939874247794
0.0158251727126564
0.0412249110194089
0.0377389360598413
0.0155685471387739
0.0154610886739812
0.0350664432117887
0.0322066037250468
0.015384515131005
0.0157204168420068
0.0323427183489949
0.0299102131804313
0.0156385579766336
0.0162449819009446
0.0327015798008257
0.0299422009165235
0.0161035005613793
0.0156952338226645
0.0293152120756781
0.0270119559610867
0.0156280429869915
0.015431215083016
0.0234142420977875
0.0223115059255304
0.0153883247412046
0.0153797345113554
0.0220470688431127
0.0213279732472035
0.0156688044133771
0.0155100593340159
0.0210182515123714
0.019421539411473
0.0154184688783826
0.0151757139001479
0.0187662403149199
0.0177141734570784
0.0151253892080421
0.0151135606348324
0.0177074957378322
0.0180624591363223
0.0153378606266167
0.0153742296103179
0.0181586171301913
0.0183624941071508
0.0151761328484205
0.0152132069178197
0.0181825337592001
0.0174358304521368
0.015151634447455
0.0152884842141094
0.0177894389140451
0.0168789350806761
0.015179045388205
0.0150371167984485
0.0150131248228353
0.0153836773408185
0.0160743602040985
0.0159800781424405
0.0150314948111191
0.0150125515456477
0.0153762206005782
0.0152921116052985
0.0150069977777216
0.0150214115800408
0.0157343251692962
0.0159715630244021
0.0150301350767802
0.0150225736729801
0.0162510894427933
0.016411787547242
0.0150184798075581
0.015022110533091
0.0165402434978139
0.0172972818005176
0.0151671685116736
0.0151687293310938
0.0182450406506091
0.0182326771019062
0.0151355769891863
0.015141338757729
0.019309457558804
0.0188681810968632
0.0150842584297625
0.0150900771268994
0.0199607870316128
0.0195613320905758
0.0195478376914334
0.0199922006467499
0.0204566974247265
0.0205464987624119
0.0150382547518362
0.0150456154499896
0.0150513953429158
0.0150522686565362
0.0150806013449111
0.0150917916120741
0.0150686245848801
0.0150683747540041
0.0150602801077238
0.0150470805613488
0.0219312001750484
0.021818085168097
0.0212174621366939
0.0206392794570885
0.0206012897335494
0.0211685435283162
0.0150984258915035
0.0151109296536466
0.0224941558361721
0.0217306736157644
0.0218368891844787
0.0225708073523573
0.0233303442886793
0.0234695227994976
0.0150600810453608
0.0150816230143624
0.0150923352775993
0.0150915134817092
0.015107686509338
0.0150411328873417
0.0150517794470979
0.0150583387648937
0.0150508757392403
0.0150504085082793
0.0150800663787721
0.0150808769666185
0.0150887501400722
0.0150817538147745
0.0150655021780555
0.0150837641960811
0.0150874079682214
0.0150956696001978
0.0150906972926358
0.0150919179874535
0.0151230958841748
0.0151219444076236
0.0151267875967595
0.0151187320886638
0.0151149083163105
0.0151257764000006
0.0151294444239337
0.0151333038808207
0.0151288785708364
0.0151299308671601
0.0151347294138445
0.0151337010691641
0.0151373406087797
0.0151351680116472
0.0151317932241329
0.0151653936957689
0.0151690029574289
0.0151710138839662
0.0151674569706485
0.0151684624818627
0.0151692765193646
0.0151683458413411
0.0151711713803254
0.0151699431805711
0.015167116217911
0.0152035310858421
0.0152046135321333
0.0152052800573853
0.0152028801465171
0.0152037313763546
0.015241145377045
0.0152404399228904
0.01524215227246
0.0152421425385866
0.0152413215016244
0.0152338022728575
0.0152348386066037
0.0152348270007168
0.0152332199070934
0.0152338953556755
0.0152540196987521
0.0152534207864024
0.0152546982494091
0.0152549425474166
0.0152550604542322
0.015242557206847
0.0152425212188128
0.015242200504087
0.0152408010940453
0.0152412835544112
0.0152403792159055
0.0152398983171124
0.015241297254725
0.0152416127794249
0.0152415041284284
0.015228032000257
0.0152283531237344
0.0152283161911133
0.0152266483152676
0.015227173016388
0.0152237612365875
0.0152232248536381
0.0152249570693393
0.0152249380844117
0.01522536962208
0.015249832789921
0.0152469890404285
0.0152469104884185
0.0152455956193354
0.0152460212842155
0.0152659163451516
0.015265551124865
0.0152665501732294
0.0152668109927555
0.015270671403587
0.0152792420119123
0.0152654327739764
0.0152657818882741
0.0152647951992556
0.0152649954776595
0.0152625578609794
0.0152623457419862
0.0152633613446348
0.0152629265704516
0.0152776643827839
0.0154150998620033
0.0154490875365627
0.0154609479142152
0.0154681691526718
0.0154695037064717
0.0154949302149306
0.0154937063631471
0.0154874854514257
0.015476912655852
0.0154401782691209
0.015821433948658
0.0159246810927592
0.0159714567801872
0.0160038248116917
0.0160083329129078
0.0160311372946328
0.0160266269458795
0.0159953372295543
0.0159498373485228
0.0158731744464965
0.018480626529535
0.0189176275053201
0.0192533915138258
0.0195645311656133
0.0196388632723019
0.0203840982981054
0.0202842256437058
0.0199290046211353
0.0195433570206659
0.0188004279820554
0.0207351743784501
0.0366196460896213
0.039301005179006
0.042203979685592
0.0452156416860478
0.0468010528522229
0.023471384074388
0.0231918688944592
0.022503213344171
0.021785916045171
0.0218114235880565
0.0224605769980797
0.0230656892814505
0.0232799306675534
0.049849758134609
0.0480373778833005
0.0447124971563731
0.0414485805058472
0.0384596965034642
0.020782208205732
0.0186160761852568
0.0406316311308513
0.0417714764614946
0.0186858871715362
0.0184000739069014
0.0483688059875353
0.0509806401234335
0.0165602956283614
0.0169464090617959
0.0469375913014215
0.0421000545524068