/*--------------------------------*- C++ -*----------------------------------*\
| =========                 |                                                 |
| \\      /  F ield         | OpenFOAM: The Open Source CFD Toolbox           |
|  \\    /   O peration     | Version:  2312                                  |
|   \\  /    A nd           | Website:  www.openfoam.com                      |
|    \\/     M anipulation  |                                                 |
\*---------------------------------------------------------------------------*/
FoamFile
{
    version     2.0;
    format      ascii;
    arch        "LSB;label=32;scalar=64";
    class       volScalarField;
    location    "416";
    object      omega;
}
// * * * * * * * * * * * * * * * * * * * * * * * * * * * * * * * * * * * * * //

dimensions      [0 0 -1 0 0 0 0];

internalField   nonuniform List<scalar> 
208838
(
1.00074053758651
1.00059308495989
1.00016684508081
1.00013834131207
1.0003141230115
1.00027768847026
1.00023497961561
1.00020809357741
1.00025076607546
1.00029468612306
1.00036067145251
1.00043197507269
1.00036778150326
1.00042273559805
1.00043530024722
1.00038768698343
1.00034338899108
1.00030941818007
1.01994019891229
1.01899246755849
1.01769866633952
1.01614741460381
23.5019127044042
25.380011105807
27.2002442787671
27.4277213894884
27.1439922359427
27.4411293468281
26.1537027842634
24.7520145026735
23.088436076729
1.01343493695699
1.00936802295935
1.01009656454268
1.0116353199351
1.01147019903174
1.0098109909636
1.00888520300595
1.00737168712329
1.00654564029454
1.00352354254116
25.2906169136735
26.4259605330865
27.2553281600737
27.9874947868421
27.1792815443541
26.0385829182047
25.4420551902097
1.03479456012801
1.03282210567013
1.03006181684794
28.5616081819148
27.7018243413695
1.03296827642233
1.09643295800683
27.2364273769455
27.7010229085495
1.03135733344507
1.01760350478309
1.0072417735344
32.3311250701585
29.9000420613041
28.5826656461778
30.3979561560758
1.00839301127753
1.01703927233164
1.00047954505652
1.00018552441285
1.00031441462631
1.00052487689736
1.000493619945
1.00033313164587
0.999992860185772
1.00001750504581
0.999921138910109
0.999969122229044
0.999979993322598
0.9999566327046
0.999935526092555
0.99992122994622
0.999915043673944
0.999910546985162
0.999907988795847
0.999989737060312
0.99998965879745
0.999989986048023
0.9999901116215
0.999980832727033
0.999948764040354
0.99995277790411
0.999952549541487
0.999952346446442
0.999952345659635
0.99985085939375
0.9998505731981
0.999852617255462
0.999855683996671
0.999868209626935
0.999769318731809
0.999756421531533
0.999753525994151
0.999751337783953
0.999753026947021
0.999779049066312
0.999784165750621
0.999791972349373
0.999805948981035
0.999835027508517
0.999766595117154
0.999729230005001
0.999705113242772
0.999696672992626
0.999686828400765
1.00031311207421
1.00033410437568
1.00035452051009
1.00039794429048
1.00083150120722
1.39037409683678
22.8583718785815
23.754005460584
25.7559969138174
27.7158347244854
28.0630564905991
1.04557827100604
1.02629625843718
1.02433489907671
1.02821495553739
1.06531834103525
1.06298528589911
1.06913819890203
1.09086155230284
28.9329621935305
28.5077184175994
26.4153808947453
24.292779688574
23.7301571408211
1.39723882034484
1.65562212814228
27.17647539667
25.7971631059788
1.63572143854848
1.04815277493056
24.6007720188801
22.0993273955585
1.02437506023677
2.18294505051077
29.2400841906197
28.8801699753964
2.71595715975646
1.48711361520487
26.1211786243552
26.1548398288448
1.02571021060906
1.02078583059993
25.1876351212449
26.5890940728256
27.6792826443651
1.00411438765745
1.01158183978211
1.00140697344991
1.00021784316611
1.00003154633854
1.00038652100767
1.00008036963516
1.00000433745743
0.999971032237523
0.999929276989508
0.999898105058721
0.999961162286118
0.999953189980958
0.999882038584006
0.999876804411753
0.999948205393963
0.999943683273651
0.999869682748143
0.999861024736988
0.999848733514474
0.999845756451291
0.99984391953814
0.999843777245916
0.999946271209271
0.999946329587469
0.999946586462439
0.99994701678382
0.999943571029316
0.999945149962427
0.999948253949541
0.999947860126398
0.999947655502711
0.999947598653035
0.999852079852394
0.999852270747893
0.999853771532416
0.999856751182433
0.999868032415106
0.999805786393665
0.999798648730827
0.999797521902582
0.99979300046659
0.999793471061667
0.999760882801065
0.999760607774479
0.99976453202977
0.999766278247787
0.999776419255557
0.999744732944987
0.99975149447264
0.999756180908871
0.999741554109751
0.999742032790227
0.999701719234067
0.999697578123761
0.999701108706573
0.999698737688629
0.99970264874255
0.999770903373375
0.999803483807351
0.999830373049961
0.999806702903016
0.999817401904194
0.999757401195313
0.999774630971793
0.999786988136967
0.999816197364784
0.999841726046
1.00134909833912
1.00052199813757
1.00049414781214
1.00051482954664
1.00051420405805
1.00108691331353
1.00108551829547
1.00105319923223
1.00101051915521
1.00212374707389
1.40482708530944
24.216096324644
24.8929202360761
27.1265289310047
29.3383958380468
29.8110030815314
1.09804959883063
1.07765165872233
1.07115546913451
1.07396603453073
1.08422315769001
1.08080527847754
1.08753444229659
1.10659844488155
30.7666412602945
30.2598456179174
27.9152301122467
25.557327664063
24.7992833359529
1.41229998139959
1.67554718442718
28.2356738197483
27.5873910421096
1.66749373973697
2.18470415149434
31.5413212689833
31.1195370778419
2.66428397901132
2.66020146525633
30.5222840292783
26.9081449114136
1.52311612102831
1.88334790524982
27.0294730663177
25.8148536438617
1.74753806831688
3.55082198710409
27.2171246578507
26.1631078730043
1.03346053722412
1.02408967768359
1.01022543578855
33.0133163241198
29.829960253385
28.2809866377485
29.8436852793254
1.0044783577206
1.01533050073037
1.00332771486195
1.0007770369803
1.00021888247251
1.00122638427993
1.00027199244482
1.00001336220027
0.999975855968622
1.00002094618668
0.999920026222947
0.999966155503595
0.999967226773744
0.9999134001737
0.999895906214769
0.999961468728636
0.999952115526165
0.999880518669759
0.999887734512117
0.999954165063999
0.999945435971146
0.999876343769675
0.999891611685144
0.999950978739491
0.999950435299825
0.999952816761986
0.999952438646147
0.999952286829302
0.999952236336641
0.999869379351241
0.999869582937813
0.999870602179558
0.999873898063822
0.999884035322162
0.999847066266394
0.999842206338443
0.999840337191617
0.999836206687976
0.999836371621653
0.999921015705614
0.999918551761481
0.999938664356086
0.999926622087657
0.999907782907238
0.999820240706287
0.99983544154186
0.999846133753883
0.999826785806522
0.999829732108313
1.00010712162515
1.00009479033337
1.00015864112082
1.00011123882707
1.00004369826643
0.999887629122739
0.999941066579202
0.999967659981849
0.999915244649123
0.99991993944813
1.00058000381595
1.0005566886537
1.0007082675441
1.00062840421109
1.00047656612895
1.00020080855271
1.00031587178207
1.00039727691487
1.00029708217063
1.00032459592397
1.00021225956354
1.00023997487433
1.00030435603069
1.00030940032503
1.0002610538889
1.00137528788175
1.00161255183437
1.00170600108012
1.00148756302184
1.00146742476029
1.00233574110414
1.00234315237536
1.00242387074732
1.0022149509
1.00338852844798
1.00558010861505
1.00469628895563
1.0052291242854
1.00480433085832
1.0048172632975
1.11572571919673
1.0980968222329
1.09128616102003
1.09523974520369
26.2568722534852
28.7466206622208
31.2319805889533
31.7647261986866
32.8297514723663
32.2740429028755
29.6351895573675
27.0017357692238
1.10820698132536
1.10385064421391
1.11042673234537
1.12587092606184
1.00961159614625
1.00952888588185
1.01066793397694
1.00953049852115
1.00946810954253
1.43278229106579
26.1720725136573
29.9638791554346
1.6992861692733
1.68184398128702
29.0498542682432
33.3985312185855
2.21747301660828
2.70227055172842
33.0300556193652
31.9929179970439
2.68852191427047
1.6094485145207
28.3172480128358
27.5118836271718
1.5653874583505
2.06186250587004
27.9656704867292
32.0781127238821
4.74719924481036
4.10805293536153
30.229056366722
28.4430917520835
2.81349649790949
2.07859824425468
26.2748244595776
26.3388976171908
27.1377208613215
1.02746732528624
1.04044415623482
1.01215802099518
1.00277506327425
1.00393290170047
1.01158358771837
1.01107406396672
1.01520229193856
1.01410255662353
1.01257648515709
1.01155384797009
1.00910467077997
1.00441801919579
1.00901094427393
1.02231459972655
25.7095758579417
1.00454463551184
1.00148646487586
1.00479278930871
1.00617470286718
1.00133420003259
1.00027620438843
1.00048583030097
1.00003578134214
1.00002463733493
0.99997917608761
0.999994764566319
0.999974557612924
0.999973717738643
0.999973140309519
0.999932249518609
0.999914893773888
0.999969974172256
0.999963834460788
0.999905901449186
0.999918854491415
0.999968740528272
0.999959594862124
0.999903476415354
0.999919346565958
0.999965707803955
0.99995818845335
0.999908605440064
0.999901687357865
0.99989287808573
0.999889676234316
0.999889135219111
0.999888935462675
0.999958485698354
0.999958530384036
0.99995862950969
0.99995897362128
0.999957321614686
0.999963921278889
0.999964250840961
0.999964138379794
0.999963982745597
0.999964003939641
0.999909963855315
0.99990999435853
0.999910126967422
0.999912751289315
0.99991978181438
0.999916562404079
0.999915659061198
0.999914978012225
0.999912238373891
0.999912476809609
0.999873344891771
0.999873387650343
0.999877154484742
0.999879155271828
0.999881941468717
0.999965163937976
0.999985114747506
0.999999147973417
0.99997944185525
0.999981505843475
1.00036182233312
1.00035068778588
1.00042048794782
1.00035305003456
1.00028398451936
1.00020745341949
1.00027788071301
1.000334122967
1.00026492427238
1.00027655328724
1.00123507324897
1.00119576020786
1.00138904204809
1.00123799759364
1.00107060235708
1.00077905156843
1.00094864438923
1.00107462465682
1.00089922760407
1.0009391820605
1.00300157461551
1.00288911690489
1.00330701489807
1.00305433876783
1.0026790310865
1.00208162743796
1.00242499662539
1.00260269005517
1.00224109337415
1.00231994538424
1.00172145603016
1.00164730167154
1.00194081666852
1.00174996405923
1.00144410100723
1.00442849371871
1.00511873113441
1.00551368752051
1.00481679377767
1.0050058433727
1.0042991670047
1.00426113352163
1.00479982911021
1.00444752599308
1.00383270326428
1.00886638816473
1.01016012834823
1.011120608819
1.00997235633237
1.01015651553576
1.02183701108125
1.02135610014409
1.02329979477898
1.02134480851959
1.01856232172944
1.01643301652689
1.01871666518365
1.02103531004741
1.01852247380336
1.01870238980495
1.13785801004274
1.12677136099999
1.12080899907165
1.12517246270066
27.7850283288606
30.5754767670731
33.382210397909
33.9605966179975
35.107256434815
34.508864397625
31.5296963061184
28.5767274789917
1.14572160459634
1.1415331990424
1.14751380304941
1.15303090279564
1.03278042869289
1.03274560770219
1.036304521372
1.03307377392199
1.02977468843036
1.46500978097767
27.7004725898542
32.0481763878967
1.77151383745169
1.73056525149223
30.9654624092386
35.8929757629634
2.31010557575246
2.71482961798388
35.478673122863
34.1835011006887
2.71038644491218
1.66407578499814
30.1808759116164
29.219414335854
1.63242326184727
2.40732947602726
30.114637321329
29.0261573968739
2.26076201115228
5.25872461102658
33.9213154083169
32.6339807448349
3.52886344099492
3.26561905093432
30.6068611522642
24.4566541837698
1.73554705491396
1.47562818589523
23.0271085625282
21.8707851432217
1.11496708911739
1.03050108695287
1.02258077151673
21.1950646336671
21.3769231087034
17.4954113867602
18.2459083311694
1.0076195017578
1.02079966061065
1.00139017312486
1.00017426015982
0.999992567377261
1.00014515873465
0.999914722484212
1.0000306242904
0.999972931295744
0.999925053986804
0.999863657813288
0.999992693751177
0.999970417430247
0.999940279255161
0.999931852689999
0.999972776562884
0.999971814290163
0.999927741695792
0.999929908156999
0.999971837126805
0.999977366599085
0.999946528112255
0.999943728302593
0.999975327354011
0.999966530212713
0.999928097486702
0.999941410051538
0.999973099232924
0.999964907217147
0.999966127511376
0.9999650225029
0.999965047111348
0.999964826917625
0.999920103267612
0.999920994762531
0.999921439344023
0.999922830750683
0.999924304475311
0.999943023998391
0.999945992849922
0.999948441465428
0.999943785562289
0.999941452836291
1.00006397899626
1.00006656944222
1.00008863141825
1.00004718258116
1.00002514626537
1.00000660024959
1.00002396530262
1.00004640922604
1.0000257316449
1.00002863937748
1.00038266586915
1.00036955548698
1.00045126923936
1.00035470097263
1.00029761196469
1.00105541266088
1.00119178213571
1.00144797879448
1.00121355201214
1.00125717383614
1.0013320764793
1.00129192569825
1.0014895951886
1.00130392160762
1.00113527295975
1.00315962971401
1.00353493050389
1.00393087700176
1.00345398043072
1.00357051129262
1.00351348343748
1.0033991426583
1.00386588449249
1.00355735911577
1.00319132335304
1.00810956493583
1.00881150902863
1.00932515738557
1.00839799597592
1.00868868732894
1.0077659289418
1.00748886691112
1.00830021803061
1.00788625933262
1.00717366924399
1.00590658444694
1.00658771603876
1.00691566511524
1.00618263992012
1.00639091706335
1.01537515086387
1.01491988670892
1.0162213732095
1.01569509591391
1.01447123334017
1.01095683667636
1.01238160725801
1.0131464116981
1.01168365477117
1.01211343291498
1.02543172170294
1.02479936162831
1.02689600570348
1.02583840406129
1.02383802981537
1.04265856136926
1.04533104669209
1.04674477790573
1.04389681675863
1.04479094668475
1.03846872586081
1.03780205969
1.04044354956737
1.03752768440587
1.03345521229566
1.05409210669898
1.06011707795241
1.06439611010676
1.06089619612779
1.06180413497878
1.05243480164885
1.05287567564223
1.0577196727535
1.05327408318182
1.04978563124985
1.49117605006754
28.5281467389519
29.4571659861722
32.5911879743001
35.7594410968062
36.373795830856
1.17554728774997
1.1743978693696
1.16802205238871
1.1715298215938
1.20203669967156
1.19979696582675
1.20851268100921
1.20603709905731
37.6769586903042
37.0531786322996
33.700605220708
30.3840870262012
29.4003757118099
1.5442032475784
1.91882606954732
34.428225394365
33.207984622159
1.8293591526241
2.53687862336509
38.9700560990173
38.5502790969097
2.72052687948955
2.71752955238419
36.9348127280526
32.4002900579851
1.74552781101708
1.70167676697604
31.2308182975891
32.3261209459203
2.63241606324539
2.51968022623233
31.1997138297467
37.3928039103135
5.79720624009872
5.58998021611483
35.7062761305437
34.5439984807931
3.73481875871007
1.91443802505695
26.9704949211876
25.7663054843911
1.72370532355868
1.3521763772403
19.4173736839916
17.9814074422857
1.06600235514711
1.49774495720854
16.3245611312356
16.8732701774824
18.4564628464035
1.00439516601762
1.01786092097012
1.00545370866533
1.00097620891418
1.00076387826768
1.00282331270716
1.00087359093266
1.0001151685568
1.00003512809742
1.00069993111004
0.999987463173331
0.999943598520508
0.999954799843114
0.999884198872536
0.99991090042995
0.999967006091911
0.99995918152778
0.999903943213499
0.999957023003933
0.999970621983136
0.999969064292205
0.999953376899219
0.999960876709275
0.999981081695003
0.999987820398465
0.999979209356446
1.00024279791625
1.00007475374683
1.00001041304571
1.00011830315145
1.00009329819256
1.00022470559212
1.00016776918561
1.00022529023128
1.00029887440113
1.00023301676199
1.00018210851366
1.00013755317383
1.000198088919
1.00000144390329
1.00468915096268
1.01686598262385
1.0174465135118
1.03458308157612
1.08101020500076
1.06710848360015
1.03730911573422
1.02021446644616
1.01668248907097
1.01160038390768
22.9936874233863
24.7519350366406
26.1539404775446
27.441358829508
27.1438204221506
27.1787359266144
27.9876733664231
27.2557231881044
26.4262346347736
25.125588641908
25.9996469089789
1.02045148026197
1.02316038938537
25.3958410754548
24.5971715835105
1.04125842043131
1.02134532641715
1.02158889535521
1.02588478079353
1.0416496006367
1.07103664458333
27.4309300322726
27.2041401314216
25.3835286477001
23.5050380313162
22.0944683724284
22.8686760914296
23.7606906279691
25.763620010704
27.7222661045467
28.0678937299736
1.11539677891351
1.06721586237521
1.0344794394787
1.03628480524615
1.40065420580729
1.00069231368726
1.00039611562852
1.00038980621
1.00043215264884
1.00053869782599
1.00090636258605
1.00073817411008
1.00076510978616
1.0006758589615
1.00130434241388
1.00025037939505
1.00030119097441
1.00046311503006
1.00038059908487
1.00038872018109
1.00115274527419
1.00111018113296
1.00135155200184
1.00093536029552
1.00083686568755
1.00217107765296
1.0023895945856
1.00329040603463
1.00271186755846
1.00283941607168
1.00324903299142
1.00312635718706
1.00367884461076
1.00312584484793
1.00281579505197
1.00672255455823
1.00741620182015
1.0084700864087
1.00730242075542
1.00760288929539
1.00853034506909
1.00823453049288
1.00926345204089
1.00856632294498
1.00775920152578
1.01808953250124
1.01961454943593
1.02066467989012
1.0187843925709
1.01944644170648
1.02018732220874
1.01956771710318
1.02102421479194
1.02036608736826
1.01924250735102
1.01739238533684
1.01853671198153
1.01909055755276
1.01779748527192
1.01836940419062
1.0352235945303
1.03450279709037
1.03592084349615
1.0353964532822
1.03415080375284
1.0295290680772
1.03104591801446
1.0316454264698
1.03003275163481
1.03064336022156
1.05337999965965
1.05261992033469
1.0544928614915
1.05392106527094
1.05212641426946
1.08606224229679
1.08816924932258
1.08861845455241
1.08645693911512
1.08735322938587
1.07297163923888
1.07171511563789
1.07548514275854
1.07356542620101
1.0700508144734
1.11009714245036
1.11182154331228
1.11334237604335
1.10972297781733
1.1112308108748
1.0927217706303
1.09161246394578
1.09541684800038
1.09089706965254
1.08421121163855
1.08165014945873
1.08110463321879
1.08605816665075
1.08067174114407
1.07959840854705
1.11602768354926
1.11872862854113
1.12320761488823
1.11930625438868
1.14462405524658
1.66878566133085
30.4360420367613
31.7715466138579
35.3163574502804
38.867199556811
39.4672041585625
1.24730348538487
1.25398866109385
1.24227083742551
1.25317204844587
3.19632588741556
3.40886117467892
3.61526337063366
3.6292707672298
43.616034576531
43.092591550363
39.316201325881
35.4470862406857
33.1719438980062
3.55651725841529
2.81503973522195
37.4313595266624
35.6380607736127
2.02948853686073
2.91305064646281
42.4912552170344
42.0821919646348
2.76099963976541
2.73016557468349
40.3064946503834
35.0830089088339
1.86332153578658
1.79794241916997
33.6902852308613
34.8847560139276
2.90265819190275
2.76573321134702
33.5489328592393
40.8637781856259
6.17240169318099
5.971324730824
39.0726564500139
38.0591180562626
3.83046303504219
3.77923485273745
36.3314941896787
27.9963658674575
1.84244243700235
1.48846667036618
20.897211744722
19.7942616397472
2.82054848079445
2.54440615252436
17.9451981762168
17.1855901063305
2.49494735227671
1.05844522879909
16.0187018057714
17.4087476221082
19.3239747051968
1.00456538736204
1.01858564021399
1.01191952696415
1.00373106197922
17.5778052935391
16.0167797047583
14.4603632026311
1.01820338697869
1.01897356760497
14.4590369444765
15.9960842932793
17.5523627884084
1.00424881548657
1.0120738283692
1.0200411910273
1.00951264518176
19.2711849358592
17.3707879947023
16.0292791410323
1.06907416363399
1.56683481697776
16.3570475643729
18.0495242766472
1.06310359723226
1.12673590779687
21.9609695321358
21.3116044033749
21.2766921609101
1.02073815772075
1.03016538896292
1.00251425728383
1.00027818080389
0.999992984581898
1.00046253308687
1.00020545164719
0.999983738917323
1.00001031295378
1.00012145962628
1.00056433407855
1.00009977641208
1.00020693064722
1.00102096475279
1.03031065290723
29.9096919953284
32.3189740061833
1.01832068476762
1.01148470437871
28.5468227665107
27.7058895260267
1.01966070194629
1.12385829607268
27.2513245318007
29.2789747341167
2.21830854565099
1.63935678540555
25.8172138984644
27.1841710843125
1.6659213689836
1.41073988799066
1.09096791574625
1.09105786354385
1.12924266507583
1.17646425529941
28.9379653336653
28.5153925342147
26.4243049366766
24.3008188609438
23.7371381425254
24.2100143712131
24.9009096383563
27.1359947962553
29.3468846931107
29.8169356748686
1.18525497270485
1.14065781223501
1.10132309174379
1.10378005498894
1.42080542851153
1.00206589262467
1.00128039444254
1.00156263172219
1.00135534510403
1.00157288232517
1.00288845182198
1.00261426972213
1.00319539269344
1.00253948146778
1.00317973347595
1.00506716078102
1.00510908078028
1.00645186536372
1.00514337446403
1.00549113856647
1.00642399572779
1.006113053326
1.0073271417192
1.0055473996485
1.00503865612272
1.01098033221858
1.01229306046691
1.01563540384355
1.01332175768141
1.01397684097378
1.01700305368951
1.01634419605417
1.01860462629269
1.01675123134124
1.01514684971915
1.03022302222823
1.03252136871308
1.03484080988137
1.03186066754778
1.03276456018714
1.03661464820539
1.03574332818248
1.03800332108507
1.03686694330594
1.03501277767888
1.0368483814587
1.03804929936897
1.03868175181469
1.03708142644707
1.03786302609803
1.06491257654199
1.06405576927129
1.06553194549096
1.06513260483452
1.06411382651834
1.0598565433927
1.06100101212384
1.06131214790288
1.06001891836441
1.06081676562284
1.0998430616825
1.09908973688073
1.10025580730222
1.10040551146107
1.09947579210746
1.16202259661305
1.15796738118147
1.15636960417628
1.15572170616064
1.15622511168602
1.13511213757388
1.13427990075945
1.13613089074205
1.136745480972
1.13797151729128
1.21155858576736
1.20793878913953
1.20698692101497
1.20558645263083
1.20623069171765
1.1673170388815
1.16585539024988
1.1691592431708
1.1680063819546
1.16546609220477
1.12798384508201
1.13076643279414
1.13438598565672
1.13070945803066
1.13130392949888
1.22251231690351
1.22318406099502
1.2261869274347
1.2213755149512
1.24045143918523
1.44205254333171
1.32052967362707
1.33901533495742
1.34799171288803
1.34374719026058
2.75832986256029
2.75891568143252
2.6641448890556
2.54313914597917
2.38942482491174
6.76222982023984
39.5481051216281
44.754871452766
49.5022653438042
54.0321038059103
54.5132312640248
7.71364431012521
7.72163110995309
7.22370049072033
6.66365849758433
10.6210826631918
11.7514217286908
12.8625278407543
13.1084350179684
73.9300195314846
71.0136829813846
63.7913364716541
56.8013358314358
47.8519026941055
9.31912640558233
7.7847072394036
44.3347594889896
40.5912503061552
6.74358274309337
3.54657107348147
39.3600056843027
42.0980809065424
4.37894730618577
6.34050012113101
45.1152915153704
51.7337326485133
8.77621003013625
7.39543404195745
54.7248503886201
50.6099152026656
3.80717383813146
3.22694331683927
47.1284263744828
44.3524466533916
2.87408291714553
2.07085042717117
38.303523917186
36.5394765617416
1.9525604839169
3.07657350773568
37.8500146481787
36.3140251447897
3.00277249233739
6.55580735768971
44.9566235743595
42.8230680843124
6.39190585353191
3.99141616954405
41.8661845655291
39.8555069680472
3.89911433108325
1.96122729622751
30.0196230768364
29.0541191590266
1.99933614668667
1.61142864950559
22.2942717775314
21.0651124238657
3.06862954527212
2.71394186940021
20.337847574466
19.13049957364
2.59067299570777
1.41259197464149
15.3200887518354
14.5272166774575
1.34218337398381
1.32367634367052
14.5261321414264
17.2213809650081
2.47115412418222
2.59091008876893
18.0428709499049
19.5307735837567
1.31070185853471
1.75254927916054
24.68737725297
23.2240318904131
1.50731159147549
2.96005702023692
28.7374170751207
26.4042762288881
2.22875078232637
1.06297491556674
1.06187831928238
27.144386094773
26.3493979426906
29.8201315159098
1.04408293166855
1.03588626894543
32.9615685827725
29.8058432339041
1.00444818942393
1.01539241123638
28.2537087882231
25.7281611970865
1.02166655647779
1.02422182746481
25.2215633705677
26.1877660415782
1.03402746762697
1.04239593695076
27.7270019479747
28.9363709427127
2.74604119084659
2.69232054257329
30.5755274165586
31.0502226751697
2.2109422044705
2.20871769176315
31.5169393741014
27.5594681815152
1.68317699473034
1.69476425631538
28.1417631636188
24.7637681837131
25.5593042311965
27.9206607933758
30.2655450110258
30.7704566712795
1.19471534663652
1.15125035268618
1.11095814666146
1.11350524530725
1.42998673269738
1.43769570291928
1.12288188253629
1.12049090781308
1.1608901387963
1.20293425692394
31.7468463018125
31.2143175661189
28.7288770476975
26.2352670045025
25.3721020544335
28.8569534798106
1.70216866039774
1.70712958765177
29.6506063409939
26.0067466171669
26.9466332368603
29.5852079259983
32.2250285552881
32.784022212445
1.21027729681582
1.17155040543432
1.1319502010313
1.13373840525688
1.44503051291251
1.00877702223978
1.01049684235446
1.01311125120364
1.01044863744
1.01073242609695
1.02193587757065
1.02184139936596
1.02595005425486
1.02191107736956
1.01675368612865
1.02335354585229
1.02551152860067
1.03005308737318
1.02696145074878
1.0278532020567
1.04858814954404
1.04744324098133
1.0514070759205
1.04535650936644
1.04185749618845
1.05345829842017
1.05649923743535
1.05929682152623
1.05554581935828
1.05674433720941
1.06294556741786
1.06188899632975
1.06437571789696
1.06334410309779
1.0612978364462
1.10259966545431
1.10462876684661
1.10533378154769
1.10269079866174
1.10386072359148
1.1066084024185
1.10577437267896
1.1072335033847
1.10748570122944
1.10673781377648
1.17486279203508
1.16975702751603
1.16790025883208
1.16709571659805
1.16764911853797
1.26102873205251
1.2608475064726
1.26172919885091
1.26400399438025
1.27657874513846
1.25362588398355
1.24399565988219
1.24220766701516
1.24163065233391
1.24179694174791
1.30228033729155
1.30224403438084
1.30298881674809
1.30505795658512
1.32181689162556
1.27740388429441
1.26674365219785
1.26565941376361
1.26420005293218
1.26470711222568
1.25107646524357
1.2504089682305
1.25169273914689
1.25254656941845
1.25991640543123
1.21093349725389
1.21130772229569
1.21207280549815
1.20891853955206
1.21029313651544
1.19267945240447
1.1910075897915
1.19396346027805
1.19284861173255
1.19322776820246
1.24336048267029
1.23977578127918
1.24154509216249
1.23837577653753
1.23929926789606
1.29267934644656
1.29200695056577
1.29524515277623
1.29364249019266
1.29958158781025
1.28306888332591
1.26267726880221
1.2661647703698
1.26354011006932
1.26264711413482
1.24918939630838
1.24979357059314
1.25221055473857
1.24867031098451
1.26868367536013
1.55685855381625
1.64007931158349
1.66953752647002
1.68879718518635
1.6872521425345
1.75681209973223
1.75952551922576
1.74475171052683
1.71726600486612
1.62310148545119
2.40106047892685
2.63362275447353
2.74529600679287
2.82644425908178
2.82242653900358
2.85123058835533
2.8595535157637
2.77755296219041
2.67569384180207
2.50784132355715
8.52168692428488
9.91692490614655
10.8416517794226
11.7406668128329
11.9181727321259
14.2692527131417
13.9381988738832
12.8392753556545
11.7079570919272
9.34682214857387
14.3648027246581
57.4565191373618
71.4877434632066
82.6056360166995
94.5643935650919
103.305891412177
24.3345191320968
23.0840049022276
20.6940578051899
18.323711329619
18.3532111948366
20.5046131168139
22.6187360831741
23.6097851352918
122.940267998259
111.010709041105
96.1832463198452
82.51290307213
64.6094265527623
14.4462278942279
8.58771460063334
58.2886160389391
58.1982572105027
8.7256616277071
7.85232324975708
59.1318971335627
55.2866765976901
4.41171501698784
4.29040129916768
46.9753093457077
42.5632675470186
2.44041984431514
2.22862359478269
40.36315361174
41.1824053088775
3.10801412468923
3.07794194833651
39.5434063612678
49.7531733680568
6.5569809742098
6.62547159063496
47.2595437672606
46.0685091793027
4.17529271318528
4.0873652612604
43.9729436318766
32.8137601527316
2.22062328082638
2.1670243093534
31.3732156512055
24.0516822879221
1.83887351699628
3.43197114713266
22.3967215114452
23.0391045830782
4.18880192191906
4.34360988043538
20.4281025555196
16.6422711116713
2.20358039656307
2.79695815954846
17.111998034641
15.3335245509304
1.44523925315533
2.75195099676771
19.2356783679982
21.2946112014706
4.14414307514252
2.23417341384237
22.3362296579727
27.0610250801956
1.87104014465857
1.71757200542025
25.9687739987387
32.8364456354947
3.53124355369022
3.37068143700881
30.9238709616441
32.3276640644813
4.7918318609073
2.08733011606164
28.0610299332862
27.541557116382
1.60102889926014
2.66564121135724
31.1176619202183
31.8772411680805
2.66247890542373
2.21530660874943
32.2424134539907
33.1361562030728
2.22635087429526
2.23596209646871
34.1720863784198
35.3915929948116
2.24168460896714
1.71278245768622
30.5362604787582
26.6581283061054
27.6481954160124
30.4332701240302
33.2277902588139
33.8085298321135
1.21934692139178
1.18683841612663
1.14873535829291
1.14896912135361
1.45412634744053
1.47028206637741
1.1715161972693
1.17266454152373
1.21107440118312
1.23715962187863
34.9021757276187
34.309073501869
31.3520542153128
28.4095916151318
27.3633025006323
31.5430905248862
1.74950854252675
1.85469833975407
32.6803996196881
28.141276417128
1.49688186342725
1.20028826730865
1.20381962428085
1.24297910148883
1.264070364882
35.9843627588708
35.3920954735225
32.2856310318694
29.1919341344437
30.4993127965788
33.7861977167961
37.0549215774425
37.6108360098101
1.30357982606136
1.29015458275183
1.25139067558495
1.24655641221841
1.64158525385015
29.1490218938644
33.8930609933513
2.01402655044786
2.78615091947517
35.7579762159437
31.7824322647617
34.0504342880067
37.6342598829475
41.1124026414908
41.5826288959488
3.46628504713067
3.43631507247747
3.23498110803317
3.03511552815352
3.4000856575859
1.42365863428179
1.29274700281116
1.31255354523587
1.31871704351057
1.32080658958092
1.2203763338174
1.22010261929709
1.22398211818899
1.21717956460213
1.23757844146431
1.23930008257269
1.23869162916755
1.23957056335323
1.23594360445296
1.23741657155514
1.25824454069887
1.25758939818653
1.25937909785778
1.26094686351186
1.26932057799536
1.35676509786446
1.33920791764765
1.33664406446337
1.33462132643132
1.33515844564077
1.33712766860153
1.33702146024641
1.3384563345719
1.34166300302992
1.36327810927527
1.36078262681133
1.33944795658263
1.33643574737244
1.33523754217221
1.33537243349934
1.31420246874448
1.31419147679106
1.31506299640949
1.31747444016929
1.33565087191033
1.44691859040177
1.41855566690219
1.41420248190575