/*--------------------------------*- C++ -*----------------------------------*\
| =========                 |                                                 |
| \\      /  F ield         | OpenFOAM: The Open Source CFD Toolbox           |
|  \\    /   O peration     | Version:  2312                                  |
|   \\  /    A nd           | Website:  www.openfoam.com                      |
|    \\/     M anipulation  |                                                 |
\*---------------------------------------------------------------------------*/
FoamFile
{
    version     2.0;
    format      ascii;
    arch        "LSB;label=32;scalar=64";
    class       volScalarField;
    location    "1200";
    object      k;
}
// * * * * * * * * * * * * * * * * * * * * * * * * * * * * * * * * * * * * * //

dimensions      [0 2 -2 0 0 0 0];

internalField   nonuniform List<scalar> 
207032
(
0.0157618294241487
0.01679606224096
0.0219874680763769
0.0209310544974489
0.0164763416880402
0.0163987276233612
0.0205332264425228
0.0198797894409969
0.0195109665371377
0.0156667894042954
0.0160019490271425
0.0154894850156698
0.0153164988836948
0.0153811556828913
0.0155489670650352
0.0161353687173262
0.0207216013781692
0.0205280638404743
0.0157371344081015
0.0158301696588655
0.021865276292111
0.0218088566635779
0.0162938493999747
0.0156319159551778
0.0154429114156099
0.0155155621062957
0.0157279150656461
0.0165270601032982
0.0229434352153808
0.0230973340038003
0.0159823435525614
0.0168292251103747
0.0242154044130882
0.0240202266487021
0.0173593865035803
0.0173437746517294
0.0247592485202011
0.0233477129477624
0.0169337223989905
0.0170333798959608
0.0230868364865066
0.0223086699828694
0.0170934606316803
0.0169633885488839
0.0207072813009875
0.0194003360882851
0.0165805511006915
0.0160013994200843
0.0184433164614633
0.0170955680460536
0.0154593797273719
0.0151585874082687
0.01633523071622
0.0157529011010378
0.015313995645546
0.0150257861890606
0.0150622558492495
0.015048754119765
0.0150141963169622
0.0150104675053666
0.0150068857682067
0.0150209071590369
0.0150425415570989
0.0150806599271458
0.0150462845835225
0.0151573879218608
0.0163774703084494
0.0164072599526595
0.0151733391224112
0.0150558109237793
0.0150424548911223
0.0156348906251293
0.0157167441733746
0.0153049614856322
0.0153151788545628
0.0150205610528799
0.0150220947469231
0.0153518020621977
0.0171368287924513
0.0170256859215221
0.0152768227941372
0.0150893130549823
0.0151442492845921
0.0151583894138492
0.0150978096226439
0.0153752360410239
0.0156016284987144
0.0156201943967214
0.0153897567846521
0.0152670708068098
0.0154094420251828
0.0151770190858489
0.0151112191248656
0.0150777558148185
0.0151146447207902
0.0151933252966261
0.0151284946524857
0.0151791592468878
0.0152431169962288
0.0152884036462611
0.0152323359440272
0.0152891952365302
0.0153558753124238
0.0154807465371051
0.0153628007555888
0.0156932384160842
0.0159885113567158
0.016354914891758
0.0161064293167275
0.0174187406543463
0.0256699210033105
0.025353841097846
0.0178641953681001
0.0180154794755817
0.0259587064124
0.0252795113820535
0.0175775567136122
0.0178954058959601
0.0261739921208504
0.0269915248312894
0.0181226643777716
0.0182586786322351
0.0265712469272689
0.0268055626761152
0.0184033471982264
0.0181343752902057
0.0273410543011495
0.0300872255602456
0.0195042397585948
0.0192228008327497
0.0290579461126903
0.0285363440609923
0.0185521732831443
0.0183659941267005
0.0303874741906933
0.0293153149330603
0.0176892394984232
0.0172659951381822
0.0263661858857731
0.0242386772100596
0.0171394537614552
0.0167649816228474
0.0232766497315014
0.0217034728230367
0.0166906724258014
0.0165092293007225
0.0203857620093567
0.0191282866492568
0.0161765266433271
0.01643800958168
0.0202472375579974
0.0181784098988363
0.0158001144296719
0.0154920544207826
0.0171666827273997
0.0164044977555057
0.0152255691228585
0.0150576676774284
0.0150234693781428
0.0153197462208184
0.0158162700036395
0.0158129967668802
0.015285012570564
0.0150104139159635
0.0150322222467701
0.0150185870382705
0.0150071920177168
0.0150120203550828
0.0150339959861613
0.0150384850724941
0.0151231397323472
0.0150924605892775
0.015178905129492
0.016397581573527
0.0164203127482999
0.0151142074189687
0.0150151789591097
0.0150033145769753
0.0152869459289605
0.0158169609407422
0.0159095668531721
0.0153427516783894
0.0150009874384674
0.0150115647069617
0.0150062983060366
0.0150037240693205
0.0150018046114932
0.0150037370672646
0.0150080258675385
0.0150030721379309
0.0150046837088796
0.0150159508861807
0.015010463706388
0.0150040488561116
0.0150026479571464
0.0150036545964774
0.0150007360360969
0.0150004745023036
0.015001090829878
0.0150024406646286
0.0150057165283607
0.0150025068794433
0.01500684410691
0.0150179847796918
0.0150590001295842
0.0150298058588392
0.0150142063886464
0.0150235624973806
0.0150649390033991
0.0150467781949819
0.0150709242549977
0.0150885216418634
0.0151206187829071
0.0151056240144746
0.0151421679896309
0.0151758014551248
0.0152163622693401
0.015181615902095
0.0152268426058173
0.0152625133384697
0.0152782140725964
0.0152419100804846
0.0152986157606051
0.0153510487747515
0.0153703899487489
0.0153170831244491
0.0154556686742396
0.0155962904390192
0.0156361530432161
0.0155169759446849
0.0161645135370382
0.0163875070876521
0.0163732138177001
0.0161633639709828
0.01797938185273
0.01814286684454
0.0182727779471428
0.0183028185060066
0.018126554984227
0.0181069415114018
0.0192371213764348
0.0306314322645953
0.0315717845541624
0.0194714159920678
0.0196235760091746
0.0350517340155795
0.033270764313341
0.0194318010938289
0.0186555079648728
0.0320876032171073
0.0304292621762085
0.0185419883226368
0.0166984329098368
0.0160868599100015
0.0159316401954852
0.0158923350880334
0.0158394069427001
0.0159636376090616
0.0159728212106564
0.0162827679534472
0.0256617311923839
0.0242209171611442
0.0161989622798669
0.0161531706987746
0.0229097636577695
0.0216679999539077
0.0161313142994816
0.0160857130532587
0.0203386809400979
0.0203442690174081
0.0160671400015843
0.0161552369402851
0.0196495641453503
0.0181937107813825
0.0156976031328219
0.0153847387261465
0.0171657336350202
0.0171908850823592
0.0152429524317351
0.015371461790161
0.0174192904392775
0.0165754959063348
0.0151585853757302
0.0151338688484232
0.016661417735653
0.0159604056512397
0.0153731550655235
0.0150032599453613
0.0150099498999999
0.0150065966866771
0.0150029600229881
0.0150016691028785
0.0150036722564292
0.0150037598320879
0.0150016577446768
0.015001613172407
0.0150041351192429
0.015004719543008
0.0150015604283435
0.015000822306301
0.0150043715537514
0.0150023063143913
0.015001664030386
0.0149996644144963
0.01499976612962
0.0149995445321915
0.0149989928817539
0.0150016557513697
0.0150044022864103
0.015018563399454
0.0150103560342758
0.015007341215924
0.0150097255058603
0.0150310782330955
0.0150222633757123
0.0150568355100694
0.0150749233745262
0.0150946815785564
0.0150808017643598
0.0151133760043813
0.0151234837817911
0.0151130384399526
0.0151020007183514
0.0151351188542136
0.0151452042025576
0.015156003864071
0.0151407070668434
0.0151752248340734
0.0151892494020525
0.0152077571718617
0.0151928625997308
0.0152438502363728
0.0152787468256235
0.0153000870354967
0.0152656796884194
0.0152857976829272
0.0153200102422671
0.0153398155111683
0.0153059581181038
0.0153687650232446
0.0154296532406518
0.0154495408998317
0.0153906749245576
0.0154802435899415
0.0156067408403374
0.0156203655122436
0.0155045697525079
0.0155564056998873
0.0156608669334594
0.0164275735335354
0.0162303637157334
0.0162193152262998
0.0164117995098635
0.016562405280515
0.0163922316170745
0.0182359025540526
0.0181924982686465
0.018636260867841
0.0187410700965117
0.0208596260009952
0.0200687572086492
0.0356805581194458
0.0379106065673652
0.042986949603767
0.0392391322065183
0.020130238536316
0.0214758334954733
0.0189335835578489
0.019319567690678
0.0193260205348991
0.0189614851340274
0.0214004579109932
0.0202308440723543
0.0419543875287463
0.0457984309235128
0.044054983195306
0.0208651972164023
0.0201144164008544
0.0417034622014837
0.0432962329125205
0.0201305581781525
0.0202112491484803
0.0436424315160441
0.039055038230031
0.0202223185428739
0.0202299571378129
0.0398077231806705
0.0363993467457043
0.0202196927753874
0.0193895010962475
0.0360046676574235
0.033908316595971
0.0190333960776001
0.0197335502825294
0.0340817842595162
0.0339236408956454
0.0195487728991997
0.0179940926837637
0.0298292790515747
0.0272769518484138
0.0172356381361165
0.016861927138689
0.0250484288884046
0.0244709636735443
0.0166556107593983
0.0166294327551908
0.022874990316496
0.021409960824157
0.0165941224407836
0.0165767267848616
0.0214818979793667
0.0223921035330594
0.0164451229014942
0.0163365728635203
0.0205617290008066
0.0220309129859656
0.0163449400559284
0.0161344203747968
0.0215266291661087
0.0228200740592776
0.016154118244108
0.0161791852921431
0.0243327791000647
0.0260459013364754
0.0162367685164097
0.0163099050199155
0.0280186533406105
0.0270684761892597
0.0166806113769144
0.017862956444247
0.0286576372028991
0.0252426448029768
0.0162153033446011
0.0161011169802077
0.0226497277843072
0.0202099387718791
0.016035028347485
0.015618515921879
0.0185569663328142
0.0186634313387127
0.0154507099711929
0.0153333125612681
0.0175281682109089
0.0173192931325071
0.0151288119923238
0.0150602009857029
0.0165549528500568
0.0159013138503085
0.0153407317202534
0.0150016297728902
0.015007122304264
0.0150113460790736
0.0150025706424828
0.0153398149542533
0.0158978746472186
0.016549689257517
0.0150680907367364
0.0151451677928304
0.0166561661577618
0.0159570543368943
0.0153704870381514
0.0150047491394932
0.0150090265718544
0.0150087960634231
0.0150033717521112
0.0150027990045934
0.0150062356173696
0.0150048392671652
0.0150018079946717
0.0150015698932679
0.0150051268913954
0.0150066292632343
0.015001697101648
0.0150014134021096
0.0150115522611212
0.0150434250739771
0.0150089172455945
0.015005009818485
0.0150021647475788
0.0150179702150938
0.015036880329585
0.0150769415153313
0.0150453930191624
0.0151035662349439
0.0151683982306304
0.015069485364682
0.0150394987586419
0.0150895367021718
0.0151295139364832
0.0151549680494738
0.0151197356758765
0.0151598382430364
0.0151945619370684
0.0151317073815033
0.0151184516083518
0.0151537691546905
0.0151664456117962
0.0151556933791254
0.0151466513902453
0.0151776353558968
0.0151867285886696
0.0151778657580713
0.0151690033218539
0.0151849391697785
0.0151946749902075
0.0152055143046095
0.0151911810949143
0.0152099154789909
0.0152238721441577
0.0152265884507496
0.0152121980111546
0.0152311970166859
0.0152455682041559
0.0152651100485111
0.0152506645575596
0.0152700069591218
0.0152849456861898
0.0153584606503104
0.0153253390675636
0.0153423255889903
0.0153744838193462
0.015465574082386
0.0154103216416376
0.0154292139893797
0.015481566158516
0.0156335252953125
0.0155273340323614
0.0156115998713825
0.0156888038398077
0.0164844527883432
0.0163106742361421
0.0165166671772725
0.016631379214984
0.0172258049350468
0.017054509814948
0.0171273537480547
0.0172837247937264
0.0189538248005357
0.0186440521249529
0.0186031203690777
0.0187510896533909
0.0200807314264079
0.0439880277897145
0.046870343840659
0.0207000011432005
0.0207154402760566
0.0510600392196585
0.0476681350819036
0.0201131541951018
0.0200410259211325
0.0490325332009145
0.0453976599148952
0.0200498074541493
0.0202217937411638
0.0421992043663051
0.0437503309449325
0.0202730435403885
0.0198566995672431
0.0394774350599006
0.0364853218751554
0.0197749302775286
0.0197409687503077
0.0356874092630733
0.0337502622547529
0.0195219441107152
0.0192444522536115
0.0310768797521935
0.0283912216342816
0.0175927226727384
0.0167841580140251
0.0263117830079492
0.0265486446228613
0.0167164856667037
0.0166514153974464
0.024711734405207
0.0230704568406687
0.016609314299398
0.0164739012889128
0.0242597749955606
0.0235884459281244
0.0163625176332945
0.0163975076120462
0.0254278906804597
0.0276014479421888
0.0164570749329964
0.0165361984298577
0.0301315451434482
0.0330490903404825
0.0166845444119484
0.016857878907418
0.0305186028431825
0.0290364081491248
0.0175850829552402
0.0182619085974456
0.0300074793534667
0.0318628682045463
0.018348185400861
0.0182198073441087
0.0305851978320798
0.0296790583414606
0.0172597058736634
0.0167330311699767
0.0260611805724181
0.0237848594006032
0.0159070280820366
0.0157694235235842
0.0217791749338854
0.0200771155576418
0.0155970582568773
0.0153855699956845
0.0193184205011704
0.0182306994805055
0.0152165816865874
0.0152755286886897
0.0182184534493111
0.0173128937967552
0.015135824402831
0.0153548495795007
0.0175183850155597
0.0174084651528001
0.015445861931686
0.0152671701700562
0.0171650540174211
0.0171483509041654
0.0153698196068224
0.0151671166073638
0.0163892709888647
0.0158087682899645
0.0152825181012733
0.0150062330660394
0.0150261464871027
0.0150135623654587
0.0150039498105664
0.0150085843161724
0.0150306819110753
0.0150513309939942
0.0158154719938686
0.0153167900407576
0.0150170747904001
0.0150270911229454
0.0153126238819293
0.0157543232742075
0.0150625454584758
0.0152643812616909
0.0163401261807947
0.0164223371388634
0.0152513141037249
0.0151625962204466
0.0163711090408824
0.0170316964872443
0.0172044794621727
0.0155180238228103
0.0153560941185419
0.0156534504704241
0.0157846034903997
0.0184722922586647
0.0180769744996578
0.0186945541887972
0.0191391950256725
0.0158669262906938
0.0156499572783977
0.0153997639226831
0.0156101605369425
0.0155899445011566
0.0153856463374442
0.0151147875640295
0.0151847264328701
0.0152091014316181
0.0151315651935707
0.0152781153103877
0.0154129850285897
0.0154868819157617
0.0153281954410166
0.0154033071507862
0.0155646729458964
0.0152709119898186
0.0152112436050726
0.0152837645654219
0.015338478094896
0.0152383782464123
0.0152034513736755
0.0152512181951972
0.0152816307320482
0.015198131442047
0.0151854124306135
0.0152340407659804
0.0152438467022972
0.0152209929491119
0.015212981111869
0.0151823535325746
0.0151926005483693
0.0152137668631102
0.01520560025741
0.0152036397483277
0.0152130606756865
0.0152322077585079
0.0152228323478807
0.015229037199382
0.0152429092250433
0.0152625373990524
0.0152486380144404
0.0152681070493838
0.0152824954311345
0.0153023771552318
0.0152860408291048
0.0152877113621946
0.0153045571233628
0.0153251099832239
0.0153059750831367
0.01535925277406
0.0153909045003444
0.0153972932402314
0.0153693124918591
0.0153829948934759
0.0154088480897184
0.0154905566208604
0.0154477632699318
0.0154568327577697
0.0155006058521833
0.0156359274849582
0.0155487259997052
0.0155630397138956
0.0156532938988593
0.0157041997949474
0.0156339415508534
0.0156522470008226
0.0157091261306236
0.0157121175975792
0.0157264158641589
0.0156212911033486
0.0156927245231331
0.015691016206735
0.0156175064941871
0.0155403590798765
0.0156376083254635
0.0156290904564196
0.0155341931062946
0.015440503024983
0.0154875993389854
0.0154827347719469
0.0154364316344637
0.0154902398378759
0.0155236952867093
0.0155319966734768
0.0155343065697374
0.0155339796142458
0.0155079099967071
0.0155063322915072
0.0155022116545016
0.0155001248207851
0.0155146306640571
0.0155136776428042
0.0155371838172684
0.0154440802817188
0.015433896545795
0.0154308679799263
0.0154346097622048
0.0154450786458889
0.0154394033767528
0.0163864102836609
0.0238994626511336
0.0221396096126871
0.0156827873166915
0.0154974402008519
0.0206345070124321
0.0207471725413049
0.0156428695980442
0.0155441530422553
0.0193269942365845
0.0200144498211477
0.0159657095431297
0.0155527350139013
0.0186347865767852
0.0185944858681892
0.01571844158734
0.0155002108060262
0.0181357354957136
0.0181578703348149
0.0156529978410948
0.0157792095196495
0.0182242751092262
0.0186383957975087
0.0159816941482652
0.0166027798429089
0.0196438754872466
0.0203498163297882
0.0166705214335157
0.0164667610839441
0.0207286850278204
0.0211441187087609
0.0166177890920382
0.016257670413049
0.0158609647676364
0.0205255191103367
0.0209129559974024
0.0200664793546794
0.0159746208129598
0.0156912849127448
0.0195988253217062
0.022066110823531
0.021725268976482
0.016269205976815
0.0166415607126527
0.0157282758699063
0.015522887231956
0.0157859201408339
0.0160248941957804
0.015442753077848
0.0153848092372251
0.015413826076803
0.01547011822437
0.0153064764568392
0.0152754364922354
0.0152672688149269
0.015298632088486
0.0153063248089217
0.0152781299640002
0.0152998828887886
0.0153280396839384
0.0152648304717476
0.0152516854289348
0.0152522797965144
0.0152630839788109
0.0152397612660926
0.015230582063561
0.0152298681491577
0.015239308666869
0.0152328273664218
0.015224748224663
0.0152450091047053
0.0152531066724268
0.0152521370819241
0.0152427379958871
0.0152626909954034
0.0152728214131865
0.0152940477056183
0.0152812477067221
0.0153006934839715
0.015316588702256
0.0153233363089011
0.0153046579553268
0.0153145868116156
0.0153305784742235
0.0153422365034983
0.0153279437347767
0.0153289779159278
0.0153435934506649
0.0153434282948737
0.0153286498002026
0.0153767106908651
0.0154018782904652
0.0154111073559587
0.0153878779979325
0.0153971971055691
0.01542154433462
0.0154996786619964
0.0154601259685197
0.0154735573549858
0.015514740884043
0.0156447998613433
0.0155644115885901
0.0155848346292336
0.0156707400773901
0.0157214934807522
0.0156521972730755
0.0157106630009693
0.0157523989984857
0.0161204189915696
0.0161109848588849
0.0161412579832896
0.0161442873349402
0.016676636649316
0.0165739794606248
0.0166317460233894
0.0167221843248611
0.0173281729864535
0.0171854112868329
0.0172576841377396
0.0173899051273738
0.0187314282091194
0.018619660169583
0.0186676594538983
0.0187737530331596
0.0201892851969644
0.0520217970516628
0.0561591332649189
0.0207776558142095
0.0208684844369574
0.0624228797103493
0.0572914680111472
0.0202905217187641
0.0201478380084814
0.0595100285690883
0.053755603335105
0.0200802762390692
0.0203881081008302
0.0517246875888747
0.0538499665329595
0.0203906451682448
0.0203282633964602
0.0485272559793346
0.0429947085489952
0.0207330278890332
0.0212005931235212
0.0399293122296261
0.0374511310676533
0.0199597934567588
0.0178681359104473
0.0171132984264214
0.0166416527923504
0.0164911357150944
0.0188213282188618
0.0311224326355229
0.0286191565928333
0.0172795106964368
0.0166900595341886
0.0315015439372872
0.0287376354970378
0.016558251340013
0.0165102531796742
0.0263228494113887
0.0163299657749863
0.0159512219590675
0.0159797986714055
0.0155573460226605
0.0156343861933832
0.0161636838532164
0.0165870500427973
0.0179855573126243
0.0315200078685527
0.0340327259474988
0.0186342130790848
0.0191120336342289
0.034093480035975
0.0278727755423526
0.0173848363517514
0.0168150354278613
0.026832557400268
0.02739747198441
0.0174635384733974
0.0165742481375239
0.0240841851931473
0.0223576726189375
0.0158593215111658
0.0163792423628117
0.024806284877558
0.0222818307332363
0.016150675874192
0.0165960871366339
0.0216642256160469
0.0228864686232313
0.0166509028198343
0.0166009096275594
0.0214025739849044
0.0204759870164515
0.0160077414563104
0.0159841814148574
0.0202541030686797
0.0195976922703374
0.0160682847812038
0.0163969746813034
0.0203908307075913
0.0193598658300582
0.0161813226868658
0.0165902555999024
0.0206894259177647
0.0210649182682795
0.0171367053410422
0.017162947581341
0.0217431285253221
0.0223148336274576
0.0170960760677893
0.0173736463740413
0.0237424260043308
0.0233047199649676
0.0228577628821693
0.0165350654008356
0.016934581644623
0.0174034131454565
0.0170961325035489
0.0243438234156115
0.0246529143236149
0.025083700859662
0.0177030804268516
0.017944599040264
0.0268329785419649
0.0263925611523028
0.0264459110577239
0.0178755427488081
0.0180499744863384
0.0174781162926615
0.0171391302252699
0.0169782396001841
0.0173773071904862
0.0160694846599645
0.0158479345440418
0.0158469052712982
0.0160663301885663
0.0154996798222051
0.015432570976861
0.0154683739686739
0.0155344838922994
0.0155013733273327
0.01544759309603
0.0152980031912671
0.0153283236555098
0.0153512749958248
0.0153212290432786
0.0153447671949383
0.0153749635613448
0.0153500915823154
0.0153224182649312
0.0152733148542416
0.0152862618301185
0.0152842139872827
0.0152736311256986
0.0152513517185693
0.0152604402950244
0.0152597922650628
0.0152504483831098
0.0152710611664001
0.0152812718363969
0.015274356663866
0.015265440831437
0.0152845713708319
0.015296466611398
0.0153200979778908
0.0153047407965073
0.0153154947841546
0.0153283213695048
0.0153410610968461
0.0153299577984102
0.0153257533236994
0.0153371935395322
0.0153365528777539
0.0153248726813358
0.015328116903849
0.0153420608546532
0.0153550705373968
0.0153420628692257
0.015341898851311
0.0153553674974521
0.0153563399674443
0.015342604976439
0.0153422429421559
0.0153561567119856
0.0153690353071039
0.015355076252074
0.0153979892623165
0.0154205820180037
0.0154341028039359
0.0154098832342358
0.0154706097328191
0.0155091048453631
0.0155286976566053
0.0154878166605471
0.0155766175878635
0.0156544825262043
0.015688022934806
0.0156023696526576
0.0156691159765387
0.0157397412685012
0.0157731516895717
0.0157314947008592
0.015752117979818
0.0157940802328714
0.0163156622079542
0.0163075598498764
0.0163150568098084
0.0163155591127032
0.0164131165440166
0.0164187092264118
0.0164161915570697
0.0164007141388169
0.0167708616303733
0.0166929783202777
0.0167575816915795
0.016823642328047
0.0174723830751479
0.0173420093944758
0.0174347513192466
0.0175647988229529
0.0188369567267525
0.0187348803695385
0.0188161733689043
0.0189121797541444
0.0204075046172181
0.0635150578030522
0.0698447357608955
0.0209759932652001
0.0211011158656802
0.0205411261721844
0.0709449599633503
0.078865927687344
0.0897641181505651
0.0212424369039066
0.0206909501535364
0.0797430990886337
0.0835683571373832
0.0204466760667872
0.0203276707665641
0.0742537635833452
0.0663013915402949
0.0202291053091577
0.0209787655511681
0.0658264095938458
0.0659261243276887
0.0205538555291289
0.0204597669040034
0.0594826217042994
0.0547223540809244
0.0231411914326409
0.0227143507934424
0.0482914647967171
0.0433096686939581
0.0231247003968303
0.0220349041226548
0.0387123427183459
0.0355021775491133
0.0213201529965953
0.0204240247163186
0.0350322013908652
0.0387862447577137
0.0188689174134282
0.017913369219358
0.0346597316304176
0.0166124922611657
0.0162134900982844
0.0163415553373589
0.0158345398086373
0.015805852466837
0.0158930560855196
0.0155139965791442
0.0158206831550622
0.0162829600447534
0.0175970528246481
0.028017667302562
0.0287378893394705
0.0179934442011684
0.0180863295714498
0.0289996244522669
0.0330001546349045
0.0192168102449956
0.0182710543900009
0.030550061632207
0.0291730873149954
0.0181088926131749
0.0177364233978269
0.0278248979932742
0.0268582324822944
0.0171321176517811
0.0169706327564919
0.0315330704525367
0.0288536774656717
0.0168412749263269
0.016742416145144
0.0265996500009007
0.0245658014928282
0.0166664047920321
0.0166193021288861
0.0242848472727185
0.0231326568512552
0.0161119196923596
0.0163597530226337
0.0235180647775356
0.0220542347552622
0.0162952621427972
0.0162568271416664
0.0205176405131744
0.0224505241742204
0.0163684271459206
0.0165716898371101
0.0216679067595393
0.0216939640934348
0.016639596841889
0.0169860900380814
0.0223447025770913
0.0232925801062047
0.0178221158200911
0.0179056280379756
0.0236717321123178
0.0245699899529321
0.0177363246722496
0.0180979743250696
0.0247410194057231
0.0268702521923265
0.0181945270652362
0.0182193299667892
0.0286173616488517
0.0281495153053032
0.0179576862913957
0.0180485979634986
0.0178281899928178
0.0277789576167719
0.0274479627809837
0.0286729434101242
0.0294660393430071
0.0178512751845013
0.0180825520771864
0.0172904673407118
0.0170007978423481
0.0160035155525371
0.016227773828456
0.0161793509528387
0.0159780233441538
0.0155040147580678
0.0155702296526875
0.0155295014353633
0.0154771940029045
0.0155044180185106
0.0155555884550482
0.0155784120827022
0.0155288344795808
0.015368037834871
0.0153985105644182
0.0153713921594445
0.0153439302457025
0.015295051614703
0.0153087174383895
0.0153063434165514
0.0152950209620589
0.0152722385863769
0.015282167178539
0.0153049842605864
0.0152919949340974
0.0152904474650216
0.0153036218245203
0.0153277478412284
0.0153110451935936
0.0153222319661245
0.0153363042419761
0.0153498172246038
0.0153375811977643
0.0153309879161294
0.0153418959003917
0.0153570997598992
0.0153467734895719
0.0153451607793864
0.0153557571966448
0.0153513085966083
0.0153405780680965
0.0153393474252407
0.0153503907614114
0.0153645332046905
0.0153533360526992
0.0153554033913029
0.0153683687152925
0.0153686728036482
0.0153551492316167
0.0153555215996881
0.0153693042100342
0.015382371862734
0.0153681714999366
0.0153676161298073
0.0153819824929395
0.0154302211168598
0.0154078137591853
0.0154218953148697
0.015446440624467
0.0155186653552564
0.0154805093596297
0.0155010273040714
0.0155423258040108
0.0156645605242642
0.0155877082217476
0.0156184039627075
0.0157049178467257
0.0157581229165458
0.0156856903216426
0.01570229535339
0.0157764663989464
0.0158143004689704
0.0157715033584858
0.015790920084003
0.0158347133900024
0.0158545638568099
0.0158096701332519
0.0158287926102699
0.0158748363629571
0.0164792494249108
0.0165017192029637
0.0164966481484901
0.0164643306449051
0.0165381197016526
0.0165760027050186
0.0165687530428652
0.0165222519511316
0.0168796079464434
0.0168229422011366
0.0168842943735438
0.0169371502397984
0.0176630120745651
0.0175340717649888
0.0176375059099806
0.0177668940889814
0.0189984491282728
0.0189098835736646
0.0190140041191357
0.0190958923153765
0.0192032678734333
0.0191262881870631
0.0214008310590456
0.10307122205824
0.0902304835654001
0.0208567205876132
0.0205819621865609
0.0945039454656104
0.0998568163526113
0.0212593053958851
0.0209556603914105
0.0959387840775881
0.0836358390309583
0.0207767361431199
0.0206592074587434
0.0738044647524577
0.0706024698457767
0.0228013083235444
0.0229581116315098
0.0622275124806516
0.0632703576102894
0.0243332240678306
0.0244997436182608
0.0541912334379537
0.049047504092997
0.0245616328031129
0.0245915090493726
0.0461312730374652
0.0552410198793914
0.0245135067869966
0.0234278183039738
0.0225889124058233
0.023206961363619
0.0429469382316165
0.0416190315560176
0.0231451212508786
0.0231042641464913
0.0416010531977429
0.0384844690901476
0.0223446001390703
0.0221415311893027
0.0374652363917978
0.0410515150480092
0.0222159889982036
0.0206187855356968
0.0406293563213621
0.0440462677814626
0.0190493397695314
0.0171442701632348
0.0397797073221726
0.0362380858560308
0.0168931838475695
0.016998453058326
0.0335393062184424
0.0336786608935941
0.0180163428357287
0.0180351085885687
0.0372589639418913
0.0345707141881868
0.0184030111599617
0.0185529631355284
0.037898876632839
0.0416566174154745
0.018694290237305
0.0187507586087351
0.037544469627279
0.0419197663659936
0.021478340878025
0.0208017165225922
0.0373747974874271
0.0364876800076147
0.0198527552093455
0.0186896861515788
0.0329181135217564
0.0308744581271633
0.0182616277162723
0.0179731769095999
0.0296584140642898
0.030437744842246
0.0182415153532892
0.0182487174457423
0.0310697144137772
0.0362108363456928
0.0193903051262112
0.0214431960901085
0.041737855087106
0.0360078349377371
0.0205179771673733
0.0192007026482221
0.0326721841999498
0.0298120829761284
0.018760665492902
0.0182756897054364
0.031625520440237
0.0377650384922371
0.0173228472403355
0.0171504879177161
0.0343581717982194
0.0339529577669911
0.0171277966800298
0.016756191269181
0.0302627036047013
0.0316046356839161
0.0170741446016429
0.0168290818604935
0.0292697996198416
0.0271221154931492
0.016623271919041
0.016467145294504
0.0251908681251128
0.0261414142142634
0.0165625278368423
0.0167829855939239
0.0247364829895689
0.0247251223575139
0.0168550532051504
0.0172441118747581
0.0260268357570561
0.0294239319647466
0.0179689461052115
0.0181246597662519
0.0294987599107902
0.0308354274717643
0.0182888464111278
0.0179765628777953
0.0297119510218664
0.0313121927558044
0.0180400073129303
0.0181613258100486
0.017923041366608
0.0312423360948548
0.0300258653049973
0.0315064284166089
0.0332496583375112
0.0180497243506246
0.0182910969902423
0.0174710562707343
0.0171728996102136
0.0161606565716926
0.0163913952294697
0.016267512947077
0.0160765407546733
0.015573930150954
0.0156393305836197
0.0156685084423127
0.0156047376067422
0.0155493575967797
0.0155966294139319
0.0154208951295959
0.0153893817726438
0.0153636279774806
0.0153916890016323
0.015332115196495
0.0153156427560077
0.0153152598285909
0.0153295617823357
0.015355247570829
0.015337151864993
0.01531325592172
0.0153300036207575
0.0153390002719886
0.0153250453717487
0.0153413871399702
0.0153532559724285
0.015349936269096
0.0153380445444146
0.0153548581290955
0.0153661106367138
0.0153658981480818
0.0153540439137928
0.0153707544499877
0.0153830886527215
0.0153731018113913
0.0153625292477455
0.0153601421580682
0.0153710061342863
0.0153658576581466
0.0153550191028688
0.0153694778185143
0.0153808049798405
0.0153789228655578
0.0153671967560707
0.0153685401156192
0.0153818720876479
0.0153820742795774
0.015368101171027
0.0153813811783104
0.0153957427966622
0.0153956794039389
0.0153810845903957
0.0153803942507236
0.0153951412805714
0.0154402079273099
0.015417960237574
0.0154339644634758
0.015458798313893
0.0155285908278194
0.0154907026786872
0.0155142702977561
0.0155559625057422
0.0156751687003306
0.0155991649931836
0.0156344815319182
0.0157216865489861
0.0157382556439504
0.0156505195172717
0.0157188712798577
0.0157947659513668
0.0158130281364023
0.0157354389089011
0.0157520499269285
0.0158312806063926
0.0158495100169535
0.0157687180141631
0.0158475093479296
0.0158947080088403
0.0159151175822578
0.0158667747366593
0.0158857128238257
0.015935158610527
0.0159557492884449
0.0159052359994679
0.0166445552778176
0.0165929874380149
0.0165751344255604
0.0166347352841152
0.0167067846906706
0.0166431366098597
0.0166226563951231
0.0166942334838275
0.0169418561133511
0.0169948947517989
0.0170517460781496
0.0169964024391065
0.0177423461975101
0.0178745425436725
0.0179833092726128
0.017845477256008
0.0179422357041135
0.0180893531396614
0.0193179639226353