/*--------------------------------*- C++ -*----------------------------------*\
| =========                 |                                                 |
| \\      /  F ield         | OpenFOAM: The Open Source CFD Toolbox           |
|  \\    /   O peration     | Version:  2312                                  |
|   \\  /    A nd           | Website:  www.openfoam.com                      |
|    \\/     M anipulation  |                                                 |
\*---------------------------------------------------------------------------*/
FoamFile
{
    version     2.0;
    format      ascii;
    arch        "LSB;label=32;scalar=64";
    class       volScalarField;
    location    "1200";
    object      omega;
}
// * * * * * * * * * * * * * * * * * * * * * * * * * * * * * * * * * * * * * //

dimensions      [0 0 -1 0 0 0 0];

internalField   nonuniform List<scalar> 
207032
(
3.36590537263096
8.27047958037831
28.5219817284726
25.8065269529274
7.03427264095921
6.83454152002485
25.434943692729
24.1323294684782
26.6476627869636
4.51398972845361
5.11758681099221
2.58166819407601
2.17016072372801
2.29015857580674
2.69032648620893
5.5469139128032
25.4553275411568
28.3486703733551
4.68684823507399
4.87100209166976
30.1645667013914
27.163176542136
6.09198805778856
2.90672924345236
2.41251182257234
2.59128581947024
3.15756289846793
6.82456117733111
29.1525743668637
31.9069764826719
5.38591993712035
8.56089115309988
37.0412937894017
34.5727507785432
9.77682050610623
10.0641724064333
35.8781167722174
31.6732919609413
8.76528155839435
9.62908387513943
35.463680657177
34.2073456319985
10.0514154029337
9.64846220062485
30.4639382115166
25.198170958287
8.08166394341057
5.33442967575013
19.269346995599
15.3436571914952
2.89277734273912
1.51860135847009
13.7386405563123
14.0712767709352
14.38503068652
1.07608631915481
1.09084232192315
1.02279574508724
1.00357519790058
1.00224604745657
1.00113796243383
1.0046191425864
1.01643638706934
1.03083099292091
1.01220733893873
1.73825966459685
17.5347410251211
15.3108498394459
1.67928251991151
1.0697529835575
1.0418332872921
16.6687279854437
14.8780121308772
15.0809171324521
16.5571683387058
1.03051638018511
1.03790961325403
2.44195890001419
16.6743527153222
19.3501256984794
2.38537484842356
1.16065829155693
1.20588765361247
1.21192267335079
1.16346143630153
2.93308615369206
3.54362743729844
3.54383666692809
2.94129110698832
2.09335519705954
2.34752523563465
1.21882829178356
1.16797385611134
1.06017609778319
1.08352788942956
1.31750890107835
1.18729086779081
1.27977885439552
1.3999597684693
1.44400612549008
1.37047810675911
1.48144566490722
1.58022474513976
1.91357424972022
1.63357132638279
3.17523829833806
4.02849229867954
5.4400676850738
4.81547040015903
11.0836390967092
47.6654110558991
45.6289316858332
12.0507683494598
12.660223262624
45.3007158174912
40.994538147272
10.9378437506061
12.0876895095745
43.6688829100825
50.3854685752205
13.0340730487936
13.6824768449071
50.6532395532304
56.756309812896
14.641574047601
14.6874914511729
62.2499838062905
82.6834282426644
22.401758928027
18.8693711737259
70.3244620554879
58.3653212795647
14.8727518192835
13.8035215820235
52.6305245919623
43.3352300612941
11.537499981465
10.421607372666
39.1426346824105
36.6858217145866
10.116152033892
8.09196341008936
30.7338610962432
28.806244673121
7.8719719977794
7.3212134766197
26.6742899393642
22.8752337569379
5.95888403955599
7.55184054655243
24.9937177090925
18.2468013007205
4.85811271107722
3.3567502222816
14.9408927904398
13.072794849872
1.96761799337281
1.03819368312566
1.01054791863038
13.882651367015
13.1540359519947
11.9403488901179
12.0348993767498
1.00269334286338
1.00926942238458
1.00318890325534
1.00106462701362
1.0025498671216
1.0090760241788
1.01100315232332
1.32777853056293
1.40775687105088
2.08352125520982
12.6802549415269
12.5438236553821
1.7595968997095
1.00575822373908
1.00167193611957
11.8498111770378
11.808107733992
13.2079065171816
13.9064488142108
1.00444341533388
1.01019609650142
1.00066068782233
1.00040815100046
1.00011505061135
1.00023785509907
1.00081487024244
1.00027077077811
1.00054080006004
1.00303208791681
1.00117729723461
1.00027390292987
1.00023506785181
1.0003739398032
1.00000203018618
0.999984740489702
0.999950943267277
1.00007064812577
1.00031010893955
0.999978226218962
1.00053527727636
1.00276633859652
1.04113170169043
1.01984990025078
1.00251405518419
1.00524181206475
1.02126792162421
1.01453291595869
1.02593770894071
1.03548007966143
1.05546454080539
1.04604605022256
1.10933321924372
1.14440158094035
1.18456647251715
1.1481099406003
1.21216872627817
1.25336155232383
1.26522330223338
1.22252270296913
1.3725646467846
1.45929228981904
1.47981221295698
1.39045723249714
1.85777345201587
2.23089691002166
2.31666924060226
2.03553904165092
4.89595834551947
5.45496634424691
5.41754924412298
4.88545655274678
13.7993866377929
13.4319248964962
14.0465045846401
15.5639113079609
14.5325144468685
13.1707567944319
18.8549638485088
79.4368931846177
96.1659559567005
22.1064076371095
22.7083624255101
99.0585337973084
83.4186681472482
19.6352713795209
15.1438892711435
68.166826980579
65.303516097573
14.7191975735439
6.54626245628751
4.01934551173325
3.27957995648297
3.75028466489871
3.58316144054379
5.08912500225557
5.05174721879582
6.73721543635212
32.6432859919166
32.1801191624036
6.70293832089211
6.66359853990828
32.3679132374975
33.02812576155
6.82282930990413
6.77929238342103
32.3429579230385
31.9360727799082
6.69471450166303
7.25058337862212
26.4657027476644
19.2185729491688
4.84097107178177
3.30582997625049
15.2447385995295
14.8132101165296
2.54368841691628
3.52961685928046
15.7617803648405
13.4309524824056
2.17776135220005
2.02057131944026
13.7560677826119
13.9444158399402
14.9598405331106
1.00388391522076
1.01157371369376
1.00083350160556
1.00025749661545
1.00009205330503
1.00021584827886
1.00017899962759
1.00009208619632
1.00009042648661
1.00022575839041
1.00034586356594
1.00008024734253
1.00000726513365
1.00030843706197
1.00009487511362
1.00003128639807
0.999941987369343
0.999941413010456
0.9999372428935
0.999918616874571
1.00008690884613
1.00040130849585
1.00360347669231
1.00134014227267
1.00060336630125
1.00095204935053
1.00864698020612
1.00494308613758
1.01970556411081
1.02872360247166
1.03843462269276
1.02897620649306
1.04788419234247
1.05463577103409
1.04674876842221
1.04089862695494
1.06533136222695
1.07180456825515
1.08220594786845
1.07151164681599
1.10403365873678
1.11613494694457
1.13751113228441
1.12278208720939
1.228684644372
1.2703272211647
1.29877268766208
1.25688782157182
1.28367885739588
1.32633509482523
1.3576220828945
1.3146629321308
1.52310832501463
1.63809949049976
1.66360573650616
1.55266131387146
1.88862098817699
2.20636322908608
2.20107408848332
1.9212162252878
2.11900862860209
2.34563005415308
5.47682211438262
4.99143993268534
4.96021704471773
5.43912581641991
5.89365211886342
5.56517253104387
14.940477525599
13.3719939486478
15.3077348762332
17.2737471983115
28.6663312483844
22.3272065675469
93.6206112101333
113.255001956681
137.089140689097
105.478929466619
22.2092053159868
31.2986968020453
18.0806385534372
18.4199512884102
18.4333030742918
18.1363703137836
30.7274433880023
22.6661171329058
111.621987350114
143.454029285869
121.122127712967
27.6982908497849
22.0323094813924
106.351232249847
96.0482564786794
21.6245303442491
22.0032390002449
97.0510959644948
94.0305436573004
20.5576168780699
20.6694189507091
91.2595430388364
87.048853203975
20.6569727518837
17.5934111656309
84.4956688837173
77.1019481866776
16.5276612706103
18.2649011716766
65.3915343721125
54.6498749149685
16.6766682845035
11.1554198339162
39.7622860439004
34.947893544985
9.31564000079749
8.35160030407588
32.3667576454331
30.2548245112366
8.26453689405537
8.25380702653259
29.1212495045002
27.4230337265291
8.13448183962933
8.12996715386347
31.4657315288295
40.5448017741888
8.69509575748249
8.36952136218873
37.4932081734531
40.9016708609123
8.34615499148741
6.83181228664559
36.6658923092985
36.0411080774054
6.78324534613577
6.77684076516319
35.8800201513077
36.4694987356121
6.81151448243256
6.89170211527925
37.5486332639046
34.316425925253
7.6272550127881
9.92757513434738
33.4947717310711
28.0937287331867
6.47302186816949
6.34150240897748
27.2414510980153
23.324732217392
6.29361065663606
4.77234769597926
18.8791702343531
17.6166109586532
3.7284313283568
3.22606992623681
15.6485539898542
13.4120555668017
1.77135201865809
1.41441007245848
12.5006160880954
12.8236215081688
13.6192668920228
1.00347129070505
1.00924380837284
1.00797623325663
1.00297334564868
13.6044794346726
12.8124969060101
12.4972939713221
1.42104648105108
2.0212053097256
13.7715741896944
13.9329133674281
14.9140124191752
1.00339061506644
1.01192624996179
1.00125225335664
1.00031747735463
1.00022713717844
1.00053584324098
1.00029876074285
1.0001093147722
1.00008568349437
1.00033661318439
1.00060319089315
1.00009425366426
1.00006958645874
1.00212413818275
1.01789886652246
1.00177137018619
1.00075014039987
1.00018478024468
1.00429289087941
1.01464639486248
1.03656876900466
1.01301085166759
1.2917161428271
1.37531707077664
1.07450247144115
1.04165331833183
1.09480568115472
1.13571984670434
1.16530644654673
1.12099183367841
1.16233552681193
1.20812554802288
1.07013940124226
1.05896546599926
1.08873873975944
1.10054375070393
1.08154764698005
1.07376232230288
1.10677985182537
1.11633638234057
1.10615692223907
1.09845988283787
1.11577799934099
1.12627695017831
1.13677701385657
1.1225481480724
1.14766394799707
1.16242456712631
1.16250167965146
1.14758533224181
1.17555622691663
1.19148749226703
1.22608482028879
1.20888240518585
1.24703405308151
1.26747649912758
1.39282991953383
1.34960377226986
1.38322864087055
1.43181526731607
1.6884225132403
1.58392813114394
1.61922014581189
1.71856769976801
2.2050548107457
1.95852535578378
2.27172647342342
2.39625367503691
5.53577711462848
5.13461959063042
5.8171343711107
5.92959617373007
8.64771767766373
8.52604180861796
8.59713772139878
8.63377643657804
16.4799955912753
16.2407751064533
15.7137140924961
15.2248264230372
21.568998164504
98.3066064043482
110.433199521299
26.428317158836
26.1760879080649
112.891723268523
98.3557991226733
21.42303411451
20.4144061864893
93.2624785916649
92.1412735705543
20.7240832950094
20.4136834735937
94.7347297210973
94.1468760787347
20.670070968553
17.4695974034807
73.9825492382139
71.8122713016146
17.3334581008868
17.1209213942399
58.7251308517465
50.1911346458165
15.0250858969115
14.30241967564
44.1335891932721
34.911795458405
10.2537435531749
8.48485304551454
31.5332264393229
33.8494503512097
8.25299656341298
8.18275835602914
33.0287084995074
32.3938072250074
8.15733742440906
8.67104588748315
41.2777866354366
40.9342249254684
8.33360141301495
8.34406732279779
41.048457053758
41.980269797065
8.38676872862194
8.46328293001062
43.5358786073139
45.4929857625025
8.68357620447331
8.09951889105855
40.4501679451024
40.4159953800628
9.79236800794161
11.4733206979181
47.7747621662271
50.5829948641593
11.5673693271005
10.6764719968671
39.6698819366655
29.8997979890149
7.2049451258342
6.11469393672639
24.6102173717918
21.9958192543462
4.59383736399183
4.46618734858331
20.6590165563036
19.1420947635252
4.15001175087513
2.52966153842312
15.5314407177422
14.3688376741271
2.07562476367088
2.28247991469399
14.5219568370968
13.4059996666086
1.76205668853716
3.21134986640662
15.6657196761356
16.2725396645437
4.00749013287298
2.76518473299989
15.2036093678963
15.273252802549
3.30452532376815
2.07517968069111
12.7257498523636
11.933593777163
11.9846806127831
1.00186586146566
1.00780986986617
1.00207844286652
1.00041464472676
1.0014557339983
1.00839415201008
1.03932189300429
13.1930632477156
13.8435919474457
1.01381842119326
1.10447403971248
14.3406538574536
14.1245115941017
1.11384830981229
2.40041073422097
14.5973919927753
16.0448211272531
2.33212809015661
1.80921338861065
17.6605104175001
20.4609212012693
18.9785964557135
3.72595980923107
3.30442682660805
5.48068023075441
5.06281353606984
23.3117710105122
26.3736519200597
29.4749622233439
25.799019203101
5.09878437701349
5.16672025723705
3.29685179853146
3.76700714830747
3.75921786959288
3.28898275021046
1.29615618686318
1.38422600154628
1.39485699095677
1.30264620906502
2.29235369989436
2.48259141685945
2.73180394298495
2.39340789267787
2.63070857824506
2.9633971915517
1.53095805387992
1.43086048479005
1.6157760829628
1.66349032116485
1.25968616179907
1.21718810924781
1.29710004708217
1.32808112316179
1.1350880603258
1.12189830408698
1.20861012272455
1.21692003630494
1.17157642146143
1.16028031840659
1.11519222465213
1.12630432084487
1.16097534272682
1.15096699039909
1.14363302882447
1.15442031069945
1.18915553998832
1.17779890793292
1.17825710966493
1.19383307382649
1.23214294377604
1.21557070888673
1.25811310555509
1.27803890192072
1.33325786794223
1.30234126151099
1.28512736672525
1.31651472839903
1.37080165951266
1.33024507895174
1.42105769212394
1.47596047653345
1.49308641570396
1.44036318250388
1.47052140989258
1.5229286394826
1.74214522170776
1.65250733722581
1.67082647435244
1.75598138485402
2.18785613966642
1.98302020246689
2.02762942092714
2.23442635882511
2.41753167361357
2.29225741086091
2.361307669964
2.4221113288553
2.4223605453743
2.65177569175295
2.28571813898549
2.39767689321191
2.3968227504489
2.27095528293251
1.98119198585209
2.20658451943333
2.18399729347664
1.96262669055029
1.63913732543313
1.73004136912125
1.72343993952526
1.63226615719612
1.74098356875756
1.78367482133645
1.81068925818948
1.81104125992259
1.81656634246458
1.74543708570347
1.74055036864805
1.73768048293308
1.7323609012357
1.80463991243871
1.81524684359723
2.10052403834774
2.05948246595732
1.92764173014198
1.83661544038618
1.84871685375942
1.79495872653233
1.7227215609399
4.21240253984997
19.6867547853144
17.5848323135771
2.8760272042394
2.65315574605712
16.670517434327
17.7739212775378
3.16562235564169
3.10178104327299
16.2364895216804
20.8885559700571
5.54746659900225
4.08527521097633
17.9327525927809
20.2404791937672
5.34925824294474
3.98548346486812
19.4065939645306
19.1073603779654
4.72770820489889
4.91648617199811
18.519692856111
20.3521101029834
5.4298300285312
8.31382127722351
26.0332354281426
27.3471716512377
8.9346648350153
7.58220105160943
27.5643660336781
29.8356911144321
8.18658058458101
6.67992316231086
5.91715530369635
29.3780266734216
29.687181531067
26.8566010399683
5.42632051528026
5.19957999442183
27.8431926402311
35.6876054182863
35.172749716526
7.88683604027939
8.5883579289163
3.67397293505775
3.1412096435892
4.40832641675246
5.05623172299917
1.98753090904008
1.93320859943686
1.97205434455031
2.02628949460099
1.37611792879403
1.34246809768337
1.32113769328261
1.35502167353596
1.35995749540451
1.32513829889193
1.37358477461375
1.41071647464898
1.2624525775367
1.24342373918771
1.24671639351159
1.26047715902231
1.21101409097469
1.19517970890579
1.191344729798
1.20852248870984
1.20038257123495
1.18864446211894
1.23557960493222
1.24827800359885
1.23195060396095
1.21934379067197
1.26794231795612
1.28387316637154
1.34605579207045
1.31751764242426
1.37481589607757
1.41465216789822
1.39260316082902
1.35236445874097
1.37562462886529
1.41413454842145
1.44715870386444
1.41066914685042
1.39267718856489
1.42639188703464
1.42037937076964
1.38433842982967
1.46804655461755
1.51813624690797
1.54852546716941
1.49779508283301
1.50401326443272
1.55539775465246
1.76549918809183
1.67782945199467
1.70490826351819
1.78512037217142
2.19886858588609
2.00927200729987
2.07312079988684
2.26703993037014
2.45138671260953
2.3248644011051
2.54812777664479
2.5451757850242
3.93022121837275
4.13422242553326
4.1768063854333
3.95564418082496
5.89937161815129
5.8223752279292
5.85186520426505
5.90047982256669
8.56320674472778
8.5824810759738
8.63677561509225
8.57838268899781
14.8435447557102
15.5044291088823
15.4364488537428
14.7651398225105
21.5089118160435
101.508789742909
117.393677657994
26.1527024943523
26.2480491075954
123.424442902225
106.262821593983
21.7008831966498
20.3985447390719
102.063831535023
96.8938105551993
20.3436380821134
20.6797662374899
104.005987381209
104.401236433446
20.7897151680965
20.7286885383304
98.766040995017
79.8738608036594
19.7587342902515
20.6013131117687
71.3360839884208
63.2448926259097
17.3021543495694
10.5950291927889
7.54894700988545
6.20180333100848
5.7618338809857
13.1433835448034
43.3332024476014
36.2007162303871
9.47626599410848
8.8552365020014
44.550788898701
42.8710016546204
8.66808815735488
8.65737030457832
41.7638759458018
7.60598768375778
5.38966276479845
5.57531645697811
2.52637027871434
2.64648425892281
4.16052583240985
5.10612947982307
9.62982898257509
40.3058640477651
42.4446920836616
11.0238005660771
10.279232767234
35.4945340198851
25.3377470259511
6.0420301963118
5.04806894990041
23.1097626734543
25.9290914130171
6.61931728059013
4.80106721377518
20.8877274242384
18.6575917199052
3.43439249822728
6.36473156134162
26.2697317551877
24.7672568179211
6.00457549302492
9.07333509802601
32.7478240324295
42.4668798594618
9.55642253897064
9.59192665262866
38.5014579119529
33.4325479061182
6.75755103825763
6.6098008102448
31.127424565345
26.0396447370218
7.07458824115282
7.55713001863921
25.4633182881651
23.7326758908874
6.13889613556033
7.92264458602163
28.6101947355899
32.2169696320119
10.6041012828099
11.0714034581775
35.1013369158088
35.4543164168081
10.3168619227591
11.8067292554923
44.9234717543124
43.2627437715193
44.1087858315734
9.2679977985572
10.1104683860182
12.4855626531471
12.5572665792947
56.6006079610572
51.0614419395631
54.2125322735655
13.5931053954459
14.7625561056502
60.5148437957418
60.7838194754
74.1750644296473
17.5491083423061
15.8474514244178
12.7075882249126
12.5911512297555
11.614540550846
12.2248626864068
5.0955736560736
4.48859903609706
4.49823612625485
5.08740174859414
2.16566519862635
2.06938597798655
2.12870235995841
2.21999011721136
2.07380093749684
2.02650922074249
1.3808378667308
1.41369995981621
1.46363356448842
1.43067401227826
1.49336474235897
1.52879096868792
1.47207963328521
1.43453029183466
1.29980214939047
1.32023956789018
1.31682778518573
1.30148738235898
1.24640730888021
1.26383691404183
1.25802945929227
1.2391878048213
1.29496244199654
1.31832191413153
1.30584215680582
1.28960417327772
1.34595523349128
1.3749012463925
1.45243322668229
1.4104658588871
1.44302755019758
1.48238270331203
1.52814622976597
1.49026330928193
1.45578512200689
1.48715988048118
1.48295114873066
1.44889070216589
1.42488099061768
1.45953497797439
1.50155724331209
1.46706954570483
1.44816107698549
1.48442870971339
1.46317802137431
1.4288182339435
1.41797354735162
1.4526973190416
1.48505510824732
1.44931750159922
1.52498952032281
1.57719068189389
1.58754215477855
1.53476266271993
1.70036252597783
1.78856636436756
1.81568034474558
1.73544009092301
2.02972992275291
2.21303588424373
2.30244868668823
2.11148678951955
2.35934298292575
2.49027240771774
2.57874262674971
2.59357400484198
2.64068243021427
2.61691131147558
4.52501771390679
4.73694888083404
4.69240042758786
4.45950414934656
4.7509807179669
4.99945457577323
4.92251394875874
4.64542478858397
5.93769978409185
5.90333675299645
5.97109599897291
6.00761330490317
8.69474701383552
8.74622213935868
8.8925018631036
8.86034537400607
14.7791918921556
15.4476502578041
15.5161451032188
14.8425869244838
21.9550827132113
111.880056288924
130.391489320157
26.4142415829725
26.649038347032
22.2730905278053
118.325234685332
138.491738157512
147.698290152842
26.9347262494015
22.6570868430898
125.371996196371
121.440881584696
20.8985417341714
20.6677595730952
114.613905121837
108.105315433816
20.5037504424869
21.9650657379158
118.489211530931
117.858450913182
20.9472315320749
20.8441629638067
110.828218984867
107.585375342707
26.2180574948689
25.1096157381467
94.181365778262
92.1547393975674
26.5640353059781
22.3467670062618
71.4827951925266
65.9402509418898
20.6956145419953
17.5065244215413
58.3817163881123
56.4694872321615
13.4935308185805
11.4877302855508
48.9817868091513
7.73023332086911
5.35682624304854
5.74379448025736
3.19049665010326
3.06363488394121
3.28798201956017
2.03371879694295
2.66702974646061
3.62031139863918
6.39404475779137
24.7253079171988
26.7269699395209
7.49118149828115
7.96009835937758
31.8114513657576
41.2824208261058
11.6923671842941
9.72352599836053
36.9610743486551
33.2209163278558
9.780156148629
9.04603957244867
30.4645489185721
36.0812982690973
9.10827014202019
9.56312744125017
46.7345753766615
44.508663135641
9.34150104394964
9.37809624025
43.0993824646768
42.470281628443
9.28613573691574
9.20795516835523
42.6347594699934
36.1200913356973
6.7863093826104
8.26684816603675
40.1718801581748
40.1309570248839
8.23090909216867
8.23727023483461
36.7837840116016
40.0310561624521
8.51316770881534
8.22887715500289
31.2174573590607
29.0415734530348
8.44088048147733
9.49126535854157
33.346926658535
41.4513883312255
13.9266813236279
14.6922200561673
46.0160801329871
54.4724887844455
13.8046380556588
15.9727844823321
60.4027669695053
66.5097638850628
16.2582913344852
16.1613639280132
67.7220402620512
61.7106605973716
14.6414999026069
15.6248624214603
16.969320705428
81.7719159440906
63.9351898281419
61.7623100671578
78.5277952148878
16.7196572792427
15.5058653035518
11.0965095305576
10.9864245341543
4.76758231070138
5.3587617403499
5.14619471673641
4.6425726464794
2.19948733037488
2.28836192720114
2.12245571984624
2.07841584100261
2.13938540030289
2.18290714506102
2.25816119012248
2.2119822200664
1.57005860580974
1.61060870334152
1.54667229123034
1.50539720535897
1.36837804061829
1.39400018115212
1.38813263717754
1.36783937179249
1.30764918993429
1.32950123380746
1.41288935911252
1.37725197155552
1.35628353884377
1.39242058569764
1.4854879744496
1.43387247873222
1.47741506004287
1.52780727072974
1.59586265592424
1.55371958332401
1.51451548992472
1.54388489913139
1.61732469899226
1.58644061104525
1.55178551647229
1.59467859043755
1.53605592361955
1.50528505781276
1.49369925615414
1.5303078517098
1.57982362430054
1.54016190194095
1.50714535431535
1.54343069324687
1.521571505812
1.4834049308997
1.46150964488023
1.49813007725329
1.53079594664492
1.49152340928251
1.47849269711383
1.51650292832436
1.60377332611054
1.55008718412147
1.56335043291042
1.61940396345842
1.81089315122674
1.7212138482137
1.76371080728501
1.84625633279602
2.22874671001838
2.04834731233587
2.14757882512687
2.33903015593671
2.53352921530189
2.39576159191812
2.43331412247434
2.57700553773164
2.6546830003405
2.68283220337235
2.72828614072915
2.69482256048122
2.73467293088891
2.77131231813864
2.81955312158098
2.77770769749237
4.87157157097203
5.15920622051446
5.07852003624628
4.76399946612756
4.97822558473733
5.29095474163692
5.20970482818626
4.87286162006757
6.10184964181406
6.04281287503938
6.10591095304791
6.21068382929711
9.05679776684475
9.06787194131428
9.26386129296008
9.28679821840106
14.9529927920463
15.6381693541569
15.8104170146708
15.1156234653109
15.330038841675
16.0271269536382
27.2733971687702
158.176540411896
133.061010215498
23.1048945211977
21.1736658499969
128.54361597629
145.013103629456
22.5069613955648
21.6333316787382
141.319638869075
132.79666257754
21.2915257620574
21.0939483412872
125.008640462744
120.580713345446
25.206366070876
25.6648701863043
113.829182502265
138.606005091271
30.7011699971905
31.7286503709895
130.214938611586
132.070191433455
32.1404577016642
32.433128676871
118.998561104349
133.115528326921
31.54083697575
28.4163857557303
25.0324696856448
27.0304264763327
109.659987706939
104.816804927407
26.9089590339473
26.3631075790765
97.491922651556
94.2016159408792
24.8804074909121
24.4647379780547
97.256931816531
101.719959201731
24.6232904913297
17.9261711043163
71.4816413886542
62.3283517509774
13.8224620885221
9.46786942808205
50.5703069662264
47.8786578676949
9.02601468983567
8.35232273333804
43.4614991530845
51.6989456663003
10.7742577035257
10.720211749156
52.9112654873772
50.7316003848377
11.4942374194858
11.7728226346915
52.6272405377477
55.1844288997777
11.9375406514452
11.068117097483
47.3699282772068
56.0689593897327
16.3643608844682
13.9250680110862
48.2736520893225
39.0794377140215
11.6220946627199
8.50300571452736
32.0232084700523
29.0205353004203
7.81763669613845
7.02530072455012
27.6784456644146
29.2247471643721
7.84905134319014
8.19577902918917
34.2613483444249
46.4277451547405
11.9462257246855
18.130291444197
66.3083896506175
54.2806438374813
15.8659697983568
12.7239951379082
47.1389145482089
41.2208984286634
11.7229279684621
11.5143791839701
44.1654902501508
51.6606469985417
10.1402822640547
9.79096892977404
49.0311827543444
48.9219009753823
9.9978564580391
8.02361190934588
39.8173661606774
44.5505526955039
9.76926141864715
9.12091868993631
42.6501069868375
41.0678905521941
8.66174332473612
8.39198039800021
40.1715377155087
40.8966133831955
8.68025638471375
8.48138800218223
32.7582859122728
32.0187480126822
8.73248873679417
9.9898582582633
38.1422798783241
52.3277484658137
14.0792572114651
15.4376952327284
66.9664791576658
69.0926808054602
16.2385121228934
14.4745623756374
61.2388576677801
61.6822200117787
14.4948311392019
15.5932825627329
16.7211870171929
77.8326108155075
61.1121269168506
61.6454053937552
78.8297473019646
17.0183256107974
15.9669228594687
11.4420724089988
11.1655438950072
5.18006033668632
5.78128851627276
5.25105618333929
4.79288990232682
2.39683237789772
2.48563763244793
2.6280714498793
2.51869249491689
2.29306449646318
2.3598573992216
1.71701608597244
1.655666814031
1.58391668597585
1.64249454170983
1.49098461891621
1.44771444416737
1.44552104961587
1.48198538018789
1.61677088935881
1.55566431571547
1.47346422572192
1.52854003741732
1.5754940517053
1.53705823162407
1.64444748731872
1.66768709626247
1.59707644408761
1.57578887297515
1.69329814493389
1.71625317261649
1.70871915293959
1.65478987993554
1.79520718213827
1.85830228687621
1.71612451800661
1.68295280516847
1.62735509760782
1.67383892079879
1.59317755740682
1.56159641263293
1.6320149105475
1.66461375667518
1.63535305969175
1.59257753922755
1.54812404648169
1.58647125721999
1.55863093745229
1.51723428322575
1.55201846315684
1.59758214890429
1.56241450562834
1.5206897208193
1.5059701126064
1.54645528912826
1.62830702222353
1.5734533114276
1.59082386219827
1.65029586699729
1.8329156762834
1.74170203476111
1.79132672545623
1.87684834791785
2.24579852808132
2.06758381933136
2.18394068567171
2.37575254471553
2.41170478586875
2.21974702684701
2.47235346207574
2.62296250895202
2.66782963715776
2.51143145271814
2.55122226620341
2.71187527624305
2.75292431713182
2.58977016449706
2.8663288338632
2.81971552068047
2.86426676911897
2.9181092098401
2.96747570890407
2.90638392047712
2.95001358979104
3.02056399197621
5.40548887976118
5.07978537634559
4.97161393402516
5.32220727838244
5.50075478738146
5.17107255655532
5.05342008692473
5.41334721776755
6.16300311613936
6.32755138994802
6.44478217125366
6.21445893272049
9.47077583554467
9.54497156766034
9.82104615735004
9.67465291010352
9.85623738477431
10.0972341995119
15.5896014855138
16.2797455784426
27.6769676348879
170.091684947414
141.549993997325
23.6014922715784
21.4964451966623
136.067432838111
155.151635359223
22.7806643111228
22.1726004848149
150.506972463346
149.60480706223
26.8530181492224
25.4849505123982
137.55792768038
128.398104321117
25.1388249057391
30.8978045944913
157.099073607147
143.113813246003
31.6754739135802
31.5680033734717
134.226347186615
102.879936567964
27.2738747333494
27.056990206812
102.863466183239
96.1062485486882
26.0455575974253
26.2892599294619
104.330995124053
101.961972897117
24.9608936379089
24.5944649975239
107.502303104481
103.610900386299
24.4476248476249
22.2251030209414
99.3039114002747
99.2612144997083
22.3289609703369
18.6023361681936
74.5463976859766
66.3274629497347
14.5041441998812
10.0564354264263
53.2631906354283
47.1158872908909
9.0727780372322
8.656148294753
44.9565954234546
6.22313917689316
9.53227175830671
9.50478269456885
11.1272367903466
55.3024334698786
58.8159478199296
12.1150359031172
17.4105199321461
68.3304718873731
63.780577801792
15.9353886606185
25.3690985250546
88.3406300761316
78.1514288997465
23.4719423901833
18.0501485720354
58.578338260442
45.8370214628406
14.3837798564272
10.0537497560733
35.4585373130674
30.52161940224
7.91581915040649
7.25324780737231
29.1254687073643
30.4242929167512
7.97361157590329
8.41080808109739
35.6324269699648
48.7959255947443
12.0531694359993
18.7368444687742
71.8892223412406
91.4249006572386
24.4678811632628
25.8266022827093
119.808319106681
114.076775002381
25.2041860909579
25.4792221268481
110.634517737312
101.299767105586
25.0596222973408
22.8840209052814
81.8893054884676
59.6736187802755
14.4120317937897
15.2719364353975
60.5993016848875
52.9329076421543
13.5811148525359
15.3304262097993
57.2599785691287
48.3286324086631
11.4622770317562
11.8063076165634
48.8834824452841
38.5783240017255
13.4608763225528
14.535880418678
37.3000632043325
44.4348160071437
17.2061333008029
22.0932180786631
64.6771184219243
84.2375470283591
22.1315292490915
24.8329752068868
91.122924430097
83.3950790183777
24.3596502294935
29.6957656333131
33.5847989254576
133.305602836575
92.1621271859933
88.7920742337492
126.649497268605
29.9599576744189
26.8989076202285
18.0105215651073
17.9044496775265
13.5914291747043
13.1361462321819
8.71953003723148
8.47687237718718
7.82954733171168
8.3092088227297
6.98582406041493
6.55872835317564
5.33542296510253
5.67592118527033
3.92648052814434
3.79727812770277
3.66428554878568
3.77230329796691
3.54309612143091
3.44427990215548
3.21797935607578
3.3053625684194
3.07967433555967
2.97591590932934
3.04311498396669
3.12503416811652
3.25505101398282
3.14482266772354
3.2291155846808
3.33230482673826
3.46683111868667
3.31450098158625
3.34523708646455
3.46738200994241
3.53507346491231
3.3609612587223
3.27609731984668
3.40656279307126
3.11792445315476
2.99194678243793
2.82549493434763
2.94114443905728
2.51873562779953
2.47012509613124
2.26148704877348
2.35305001956298
2.04647490891717
2.00241611241677
1.85830336111529
1.91260729248788
1.75885658705817
1.72447640696897
1.65785736003302
1.70323358156817