/*--------------------------------*- C++ -*----------------------------------*\
| =========                 |                                                 |
| \\      /  F ield         | OpenFOAM: The Open Source CFD Toolbox           |
|  \\    /   O peration     | Version:  2312                                  |
|   \\  /    A nd           | Website:  www.openfoam.com                      |
|    \\/     M anipulation  |                                                 |
\*---------------------------------------------------------------------------*/
FoamFile
{
    version     2.0;
    format      ascii;
    arch        "LSB;label=32;scalar=64";
    class       volScalarField;
    location    "1200";
    object      p;
}
// * * * * * * * * * * * * * * * * * * * * * * * * * * * * * * * * * * * * * //

dimensions      [0 2 -2 0 0 0 0];

internalField   nonuniform List<scalar> 
207032
(
83523.5388230454
83537.1625079164
83558.7711125057
83536.1708100021
83522.7122259261
83512.8163975877
83500.8635409015
83492.068873618
83496.0191508159
83507.4910783784
83507.5639952547
83503.8857720023
83504.1510833175
83512.4109394933
83511.9625541729
83520.1985921918
83521.7134246113
83520.6989274494
83521.0184775737
83531.2814255292
83539.6071809302
83544.0813449468
83531.2427949966
83522.7769807195
83523.0084219571
83530.1928128693
83529.5177596643
83531.6500650063
83537.2461962055
83536.6093296512
83532.0606777932
83532.9082272637
83534.4066402516
83533.1531882406
83531.7351331421
83529.9092455362
83536.3729732196
83545.5137112891
83532.9912640475
83532.9622777032
83546.0520940779
83530.7529474444
83528.2546530656
83532.8983085268
83547.8628629298
83489.9013959711
83502.4445433577
83488.6579566501
83465.7448327361
83471.0235502505
83486.027368285
83484.187232897
83459.4043984876
83555.4768257732
83554.3204006197
83517.6221282612
83509.8619893224
83502.4790313943
83502.4901404272
83503.0271600571
83502.4569034431
83501.5085351288
83503.0890965037
83497.1732505461
83496.9469608329
83491.5225029302
83490.0503344535
83472.1312653681
83488.7094446201
83507.6353790899
83501.7813088782
83522.9747256338
83563.254021871
83547.3827694889
83526.6190694397
83509.9428503541
83513.822852286
83488.6970123732
83478.5448506657
83484.4751688018
83491.168904262
83495.7414806826
83494.586952442
83495.3476650891
83496.9262813968
83497.0008506632
83496.608119975
83497.9366827957
83497.7798835272
83499.6945361654
83499.9324974529
83498.2662768158
83498.7709835169
83501.8722489498
83502.0605509856
83508.8145135222
83507.7872730026
83516.2129773611
83515.799106621
83524.4151423094
83525.4473805587
83533.3952115337
83532.6008862054
83540.5007086184
83540.975037366
83535.4813877466
83534.8823219492
83541.1041859521
83541.6091947669
83536.5998244605
83535.7781386479
83533.5031534365
83536.4855145195
83535.2711887934
83533.1511653164
83523.2312637881
83532.6311079006
83532.9946932914
83536.9672265679
83552.638005877
83536.1425709182
83537.1153030209
83546.9789835168
83544.2566502748
83539.3743462708
83539.1623741514
83541.2825917818
83538.498881633
83538.191591822
83537.185062005
83536.5586265973
83535.8117564207
83535.5547178312
83532.0300861919
83530.7392354325
83529.3800840785
83528.2563469206
83526.9137039287
83528.2452412276
83528.9378705281
83526.7617274842
83524.2036162812
83531.2879672974
83515.0938026904
83519.2944486609
83518.2002600553
83507.8932671614
83548.6304412462
83512.8625473546
83505.8482367929
83501.8572334806
83498.9289995126
83496.8651030952
83490.5675499606
83488.5576087318
83477.3353733221
83487.3567171453
83499.4550521202
83506.9071769845
83524.4027356755
83503.5521369094
83494.7234509812
83510.2429541873
83498.8099130099
83495.4007374158
83496.8053293508
83497.9404832268
83501.1048833414
83499.3126854131
83492.7843095432
83490.6021059945
83492.7910806419
83492.3147612552
83492.7617502807
83491.2080001517
83492.2146891925
83492.7491185258
83495.0136409797
83502.9535525791
83490.1956124964
83488.6572830904
83498.2087420715
83492.6874129344
83490.4874740627
83491.0322425068
83491.6667451614
83493.1472690253
83492.8126050235
83495.1515218711
83495.3595686424
83497.4999437388
83497.5875677475
83498.1612542493
83498.0855610277
83498.506141835
83498.4244269402
83496.0908518228
83496.2709414866
83496.4062235406
83496.2327079533
83496.3906198512
83496.5659651119
83496.6766121336
83496.5512745971
83496.5809712344
83496.9424005639
83498.1730501841
83497.9885012136
83503.1660105358
83503.0233552254
83510.9951008358
83511.731944036
83518.0556183208
83518.2963864638
83517.0335787237
83516.7187761856
83524.9050632187
83525.4786762685
83535.0864719847
83534.4896256677
83541.5111665974
83541.7991432782
83549.584929012
83549.0449362758
83554.0432259709
83554.6203794383
83549.6956221846
83548.9754827744
83552.3166276345
83553.5388148916
83549.4267237322
83548.383888673
83543.0519802558
83542.9149343495
83541.1256669131
83541.6780221059
83541.3186834602
83540.8482985699
83543.664937377
83543.6107871992
83538.5529705759
83535.1519483222
83538.6090080815
83539.6511367009
83542.4003973548
83541.0188598252
83538.1214343975
83541.2981730603
83538.6871595953
83538.5269630201
83530.7158689422
83537.032034486
83541.9312227988
83538.7779671668
83530.7196474612
83518.178800068
83504.4460453489
83489.1245380522
83481.4600877315
83473.2537900449
83476.6204671531
83471.9424585658
83479.4128912476
83491.8228231891
83506.2204761744
83502.2143070719
83493.0072427871
83496.6382990471
83493.4964735463
83505.4398419626
83502.9234189377
83497.2483856387
83484.342804485
83488.737318192
83494.1381937964
83492.6794828114
83490.8860068902
83491.2946116121
83492.0476748656
83491.8479598497
83492.2651083046
83491.2749664589
83491.4934695824
83490.2805339605
83490.7478117629
83483.9263604329
83491.5599664654
83489.3756691654
83487.6114837155
83489.6880863259
83490.155980531
83489.0567374755
83489.0389015807
83491.0221271478
83491.0570969576
83493.1581024207
83493.2212531185
83495.2692001779
83495.0580288258
83493.0685237289
83493.2230707226
83494.3624449641
83494.5765299741
83494.4078729805
83494.2154061451
83493.0805220349
83493.1249384214
83492.8574504923
83492.7428660894
83491.3347207832
83491.6262466874
83494.8578903581
83494.6432677618
83496.2832811884
83496.5122326607
83501.2109081923
83501.3681507608
83510.9982085717
83510.0699198408
83517.9504263457
83517.719400871
83518.5312359252
83518.7693302838
83529.2847126151
83528.9331820091
83527.3937755225
83527.7478795016
83539.2208334123
83538.6827234384
83548.5585700186
83549.2037770003
83545.991949116
83545.3530172438
83553.3407078556
83553.6847531758
83561.1121840162
83560.8670146277
83568.777599514
83568.956804157
83562.3784396929
83561.7845638559
83567.1855630806
83567.5869115639
83560.3144424693
83559.6456972025
83564.4659526749
83564.3730463704
83557.094137133
83557.1973787174
83550.7412129499
83551.192956953
83546.1598667321
83545.6034445976
83548.1028500995
83548.4572151542
83545.5920549976
83545.2586731656
83546.4995770212
83546.5522135153
83544.0708338683
83543.5360930499
83541.3654238507
83543.3949769929
83545.1883897935
83553.9725758105
83544.5094483362
83543.1728921402
83544.5243896102
83543.3631115599
83543.5960529136
83544.7260436988
83540.1222172572
83537.9096176729
83529.050249838
83537.4697029242
83542.442080906
83542.7685817256
83541.8351730346
83542.1403550916
83545.2625867005
83541.2824222387
83537.2686661878
83532.5013174024
83534.9168822582
83536.1217374684
83533.0880626167
83531.0459028546
83533.2670929915
83536.7119747278
83539.7701118847
83540.2957703966
83530.1560356332
83539.8443914967
83533.9384900524
83530.4907184229
83530.9412209698
83529.5687397823
83519.3522663985
83519.8982533559
83521.7938148388
83520.9122967698
83522.7563297672
83526.4580346831
83519.4230439528
83516.458896233
83520.792864682
83526.6481846605
83514.0502068628
83516.9038145241
83515.7505842778
83521.4063284809
83523.6262820367
83514.8760684665
83514.7397319888
83529.5055416096
83515.0937916739
83509.2430026561
83504.3738264402
83513.2977761814
83502.9052479266
83496.834692433
83485.357564781
83482.7830790849
83480.1240392738
83479.7348494198
83467.1679032081
83463.1108388004
83442.540129946
83455.9957592119
83438.3771402485
83432.302946052
83468.2808459198
83468.395190907
83480.8042313564
83475.4598870402
83492.9882903685
83489.6691221815
83491.1407721236
83492.1910766366
83488.7464340937
83488.3009769712
83490.783069636
83491.7872329918
83488.9395579759
83488.7730723017
83488.6381301456
83488.340841713
83484.2995356917
83488.135621456
83487.3749637956
83486.8156877917
83484.910515217
83485.2412175052
83484.8480035455
83481.534671722
83487.0980675232
83487.2477177198
83486.1074925624
83486.7312733707
83477.127412441
83482.2278723676
83483.1049454232
83482.3066792419
83485.1966691372
83485.3974368145
83487.1151170893
83487.0579637881
83488.8748302253
83488.9265154571
83491.0461102425
83491.0750063923
83488.592416864
83488.9380639276
83491.755756446
83491.5526400076
83492.9079965559
83493.2768557654
83494.2974398572
83493.58760765
83492.889471091
83494.2755530148
83488.8352623915
83489.0783330998
83488.2019412677
83486.5246327463
83491.4063516163
83491.9826522339
83495.8520219419
83496.1126849814
83506.1246042275
83505.5777555757
83511.6454411129
83511.298682552
83515.554622493
83515.7906464797
83526.120274544
83525.6080471496
83528.2295614497
83528.6591774471
83542.9079188893
83542.4934879928
83542.3249283763
83542.8997019185
83556.6338017903
83556.1238338934
83553.3310929305
83553.9342826293
83564.232997864
83563.8797874498
83558.6533313079
83558.9602266233
83568.2728573703
83568.0732109554
83577.3765749971
83577.4645574641
83587.0602204609
83587.1380732703
83576.4680485462
83576.4848779506
83584.1406050907
83584.3780955236
83573.8464597081
83573.5386328749
83579.3858117703
83579.7233883312
83569.0135899744
83568.51645495
83560.6138379138
83560.9391753996
83553.6520505425
83553.5983061124
83555.6130209871
83555.7209860653
83548.9398699523
83549.2724032891
83548.7108095198
83548.9331334536
83545.49241054
83545.6348164305
83546.7297845784
83546.0515447795
83544.2149306128
83545.65673475
83544.9345138838
83544.9528602361
83544.3374869783
83543.6111831189
83542.6480668954
83543.0858038947
83540.5996782686
83541.1170863458
83546.099527095
83542.8631529525
83540.1771546758
83543.170258649
83540.3064422004
83537.1539478363
83530.9602931905
83533.3175282971
83522.9725862753
83529.376665787
83523.3528150492
83519.7850110593
83514.8344192249
83514.442219729
83502.1338516504
83502.8186176572
83509.5482005906
83508.6943814093
83512.115114172
83512.7966205254
83504.5831735874
83503.7065766491
83508.9331591572
83511.4725965179
83518.2100696195
83514.2253623681
83504.9789986507
83505.1032331052
83502.8470564038
83500.1036769647
83492.7906873099
83492.8222163421
83487.440544424
83487.43274958
83477.9643764069
83476.9692720265
83466.6690848373
83466.4772551539
83454.6857239977
83457.1253999947
83450.1909169406
83447.0524378775
83429.0945459211
83425.3209750572
83429.176158658
83420.5750240693
83407.4040613939
83408.3965544276
83384.6700149026
83385.3757245965
83428.5555070785
83428.2713093496
83458.4457756365
83459.5637365289
83474.1233794526
83471.7104111638
83482.6009537986
83483.153072053
83479.9945418229
83478.6874784486
83485.3120392136
83485.689710301
83483.5208960973
83483.0372409731
83487.8447467871
83487.1954581777
83485.9925988098
83487.1565760356
83483.5976989665
83484.3152101069
83483.239016633
83480.4545692364
83479.6440823502
83482.8897402523
83482.8313548032
83481.1302593341
83480.9689578699
83490.40037625
83486.6026301827
83484.5628764893
83487.5301598318
83488.5033421255
83490.6959805228
83488.9726660659
83487.1221439462
83487.9239861777
83502.3793117629
83492.7998483005
83504.0528274257
83533.1657167348
83538.5004899059
83497.7155855767
83473.6889819489
83447.4619926253
83460.8691460484
83478.2729012966
83482.0600981287
83478.6204819055
83475.3583642881
83468.632784307
83479.5777706388
83482.862224617
83484.7832276531
83480.9529760166
83463.840687237
83476.8209958097
83476.6622348131
83461.2090935685
83485.8175124114
83486.7079546584
83488.2237468919
83487.0451052946
83485.7392978739
83487.6312998413
83488.5799639531
83485.9851328665
83489.9874505108
83490.918397055
83490.4875325007
83490.2516006892
83494.0576660322
83494.3889763923
83500.9624265667
83500.0714579792
83506.9254373519
83507.4402703629
83515.9255203495
83514.9477806084
83519.8153836352
83520.5711319596
83531.9552310051
83531.1978931677
83539.4172159595
83539.7954617829
83560.5638453864
83560.6743295996
83564.6976382604
83564.6736692993
83558.799841992
83558.4774355728
83571.4263473695
83571.9890265785
83568.4829305275
83568.1793505549
83580.860421812
83580.9654054418
83574.9487626531
83574.7374969497
83586.161315474
83586.1700247397
83598.0142139861
83598.3813338384
83610.9765302304
83610.1941492064
83596.7778148434
83597.1698122286
83606.4183404915
83606.1446715074
83591.3305686366
83591.5220452566
83592.1316085064
83591.6321394698
83593.4617427281
83593.5456285111
83586.8287066782
83586.8672827888
83580.678825139
83580.7438543078
83575.0180169981
83575.0092145467
83570.1735818756
83570.2590562591
83566.3263875233
83566.2372975422
83562.5318598475
83562.6029864672
83559.5507855948
83559.2648297455
83559.6674013464
83560.3384406051
83566.658049331
83566.1198073419
83568.9861719241
83569.5785573672
83575.4079858738
83574.8993438984
83579.4142126871
83579.963342541
83587.4322647338
83587.1516198993
83587.1507264107
83584.1555157842
83590.9057432541
83591.2139772091
83589.4668465187
83588.5323610774
83587.9366559861
83586.6603853829
83582.1299197319
83569.9270641604
83556.4088570407
83532.2135106491
83522.1401259762
83494.2668476476
83463.3879414237
83449.5240119978
83428.1578720843
83421.929994875
83413.8286212121
83413.9735197277
83448.5095867862
83450.8549547063
83469.9948007036
83467.4094967866
83463.2723835162
83465.6767516676
83477.0094123483
83475.6187229716
83474.8397180038
83475.3937908311
83481.7127844561
83481.6105157309
83481.1672923037
83480.7675892813
83481.2335714907
83476.3183954968
83475.4317686178
83481.8193103066
83484.157796128
83485.1298703132
83451.6751812561
83476.4351764202
83488.8423067632
83473.9548704129
83462.5570547209
83491.7516045284
83498.714524956
83483.754095549
83521.0098032651
83507.161274943
83504.8216684915
83506.4562448816
83505.0460942623
83505.6575846053
83476.590906846
83493.9574398963
83494.7467509646
83483.5233835463
83528.7697173773
83522.9918725989
83514.9274694781
83514.4075736862
83508.539046762
83509.2469205823
83513.2366482785
83512.3626638375
83523.2404289614
83523.8374212604
83533.4691875598
83533.2413686369
83539.0912838394
83539.3025666219
83548.3746537003
83547.976562515
83557.4052898854
83557.4715821307
83570.5102890885
83570.7274788117
83581.469708331
83581.3758562451
83588.0438861535
83587.9803641637
83589.8989541872
83590.1670019527
83590.3863079106
83589.8837047406
83585.6295888155
83585.9196664924
83602.3168843855
83602.4371146647
83595.0673089179
83594.8980597535
83609.6549926544
83610.247071445
83625.8639066302
83624.7590401054
83639.5898157967
83640.1262409771
83622.3350427641
83621.9569289476
83622.9174761178
83623.2936119888
83626.0401609343
83626.041265803
83616.5155951024
83616.4636305255
83608.5416773315
83608.5305356312
83600.0509379121
83600.0468597247
83602.1298316139
83602.144245852
83595.6834810272
83595.723496409
83587.92871731
83588.078731771
83582.24810843
83582.2331435897
83575.8399428574
83576.0417751468
83571.3963276314
83571.3231686652
83566.8025968844
83566.9545279537
83563.4993839336
83563.5360888699
83561.3505505005
83560.8598361449
83559.7449469272
83560.1943683203
83554.6162915558
83554.44504244
83554.598646202
83554.5485128616
83549.7759615975
83550.1013067607
83550.70062481
83550.3865818677
83546.1123144547
83546.9082113514
83545.7114879969
83544.8730361503
83541.3729664452
83540.1043179574
83541.7312398847
83542.7779892086
83541.5083034288
83540.5068009932
83538.9775510855
83540.2291827325
83537.4062446013
83536.5715582251
83537.6457028572
83538.3447358301
83534.380110861
83533.5987306219
83529.5923239235
83530.3387634687
83533.0355312789
83533.4277022925
83524.6756890234
83526.4225588747
83517.4201258814
83508.7528275491
83525.2136914005
83523.8800600796
83528.4901278335
83521.9564141284
83506.3428388074
83490.9980239626
83490.296661726
83490.4875061888
83499.693724216
83498.4958902637
83486.582286623
83486.7399746976
83494.7845573667
83494.262901348
83499.3610496258
83499.789441285
83499.3787427701
83496.0200807962
83489.132717313
83485.547692036
83456.93565592
83438.9325115958
83393.111553348
83390.8210172562
83402.4595457471
83356.6905693535
83353.9841817377
83331.9601462286
83328.1040138425
83324.4551297191
83329.1669008128
83360.9577473313
83356.0048737658
83338.6423340666
83342.9351017781
83400.5644256188
83401.7574689668
83440.4327161737
83441.8092889721
83432.9907701384
83431.04987643
83466.6696023829
83465.0072412448
83470.4937886042
83469.9168442417
83487.1303245719
83475.0518213854
83475.9782591591
83477.1898518521
83487.6861278321
83479.8939377475
83482.7743819777
83483.815255458
83466.9351082108
83480.9522550574
83487.3426950262
83481.8842104089
83526.4029662821
83496.4653624416
83500.3680631462
83493.1421904175
83532.4627048277
83517.2180352566
83523.6659112498
83550.2614961768
83544.4261757938
83520.0075402993
83512.5813948682
83524.6898143182
83516.1633741356
83515.9508945526
83512.1052999632
83511.6617657931
83505.8468127844
83506.6480142828
83506.427768037
83505.0662521815
83507.5228070303
83504.1627680055
83500.0898632419
83501.7598023989
83503.4014120154
83503.6122180151
83502.7324289557
83502.3822827434
83503.3468447383
83504.2162156965
83506.6817154881
83505.5941690365
83507.6900867026
83508.4846223689
83518.4641940382
83517.88474329
83525.5161509308
83526.0205242287
83528.8574392767
83528.6459628495
83538.4502197926
83538.602835413
83548.6062827451
83548.6031179823
83558.8067394269
83558.5055462398
83569.2564081171
83569.875129589
83585.4322628638
83584.8396479683
83599.488442791
83599.8136730856
83607.7833540455
83607.6788384583
83610.6476054362
83610.622224091
83609.2411483727
83609.3282107329
83628.485947251
83629.7480635237
83620.4892946664
83619.5117527548
83637.5110318848
83639.2785687807
83656.4915016301
83655.4547811877
83659.8704297346
83660.4391860319
83665.1000971706
83665.1046966559
83654.1261983931
83654.0623085859
83645.0392696584
83645.0150901414
83634.2771108466
83634.1435705745
83636.8379170669
83636.6786900705
83628.7902835727
83629.0484966399
83618.4820913724
83618.4213121563
83611.0601885482
83611.1666093057
83611.5390465343
83611.3991241583
83603.0152901944
83602.9685539285
83596.4053193454
83596.4158386538
83589.14618218
83589.0312992954
83583.1628672361
83583.1916784477
83577.1001476903
83576.9358608546
83572.0355079878
83572.1502486534
83567.5019346853
83567.3132695706
83563.4862660912
83563.3019565619
83563.5484148607
83563.6162152464
83560.8208936603
83560.4595161792
83559.7438527442
83559.8890573663
83560.6014772414
83560.3180587917
83559.5009789857
83559.5795871984
83554.6907597252
83554.7043359911
83553.6135241989
83553.6829198516
83549.3234156949
83549.6606601297
83548.1693707578
83547.8781479707
83543.4941758824
83544.2790748449
83542.7247025009
83541.9648904137
83538.9789874457
83537.9533772623
83539.2906714189
83540.1773960396
83538.0856482344
83536.8623053962
83536.0025450932
83537.2844587081
83534.2225617774
83535.0202786753
83533.7270886759
83532.8737097092
83530.5576179479
83530.8306964971
83534.1374992805
83533.9129170699
83535.8945067519
83536.3467319584
83532.6781596998
83532.734430271
83531.1497460075
83530.3935063323
83530.615443155
83530.1845245811
83524.9332962088
83525.3376125688
83525.0530551531
83523.8988428528
83517.8783341789
83520.2473429549
83506.342108687
83495.2850994109
83488.2751193665
83494.0237150115
83479.3663813305
83478.4682679282
83462.2078932602
83462.5860127976
83476.304762154
83476.6278681949
83473.9899182024
83467.6389248589
83453.6227226418
83445.7197930988
83440.3138691248
83411.0495470953
83390.0941491449
83358.40534682
83308.5503473272
83318.4743798054
83326.2149886999
83321.5703790555
83312.2914146292
83301.8608882212
83303.3516870764
83287.9073359847
83292.2634609108
83312.686179319
83314.9447955276
83348.3743747405
83341.8826927987
83380.4626229685
83374.9811771831
83382.7295595631
83388.8325850477
83386.2279119632
83382.9174873866
83417.135166042
83415.9648940966
83435.2166049866
83431.3692551027
83461.2954213853
83458.4209184892
83458.0801676963
83460.0943445902
83465.5466271518
83461.6297917177
83463.0020200878
83464.9083071574
83485.0290646864
83479.7703198041
83488.3598322678
83498.8915356596
83492.3104490748
83485.4359766214
83487.3299447637
83489.8373442969
83487.2527133139
83490.6980865998
83494.7109664613
83490.8881839438
83513.6205005353
83505.2706788483
83513.7339943137
83531.8336566374
83507.7919539395
83504.7442977605
83500.1949642785
83509.4846223051
83502.040879352
83497.6122934214
83490.1908096127
83488.0717522443
83494.9985517156
83494.2367949812
83497.4536690576
83498.3340471807
83497.8401861971
83497.3107315871
83489.7826783448
83490.8511306417
83493.1567742698
83491.9905435164
83498.9963472955
83499.9263941666
83508.0291644268
83507.5255285196
83518.3034220794
83518.8776666585
83531.6747746881
83531.5391820094
83544.6867013575
83544.698885217
83551.190650349
83551.3232887912
83557.4250948142
83556.9657760833
83580.3034178552
83581.4364165229
83601.3892138655
83599.8996315046
83618.0160692356
83619.7309649711
83629.4489686725
83627.7401000822
83631.0600829666
83632.5810074085
83655.3299089729
83652.5028574414
83648.5307705378
83650.8680411469
83670.3477877855
83668.7626242608
83674.9378849873
83675.6881966006
83681.276625634
83681.1954627877
83672.0007273534
83671.9182447774
83674.3161631199
83673.5187151838
83667.7814204578
83668.593572637
83656.4315818815
83656.0542502435
83648.1196882983
83648.5837049645
83647.7827669161
83647.0889692185
83636.4144097853
83636.8278697556
83628.8934751022
83628.5277949895
83618.8533237209
83619.0028094109
83617.0823792855
83616.890619199
83609.7655522074
83609.9685679508
83602.2626401591
83602.2435211735
83595.8064382627
83595.8640750438
83589.2024049814
83589.2115920304
83583.2964734668
83583.3407551312
83577.527834293
83577.5641472303
83572.3971453041
83572.3716518114
83567.5103170642
83567.7247705047
83567.6597626015
83567.492287279
83563.4791218798
83563.3416938738
83563.3573423565
83563.3803531732
83562.9456304772
83562.8388717807
83562.5122369668
83562.5175577107
83559.9036568325
83559.6149801505
83558.4685508811
83558.5208624534
83558.533896167
83558.235661404
83556.9509548827
83556.9956677183
83552.2594316318
83552.1209205373
83550.3923057322
83550.5298421166
83546.2530467651
83546.5519070459
83544.4705011721
83544.2106320858
83539.8888012062
83540.5988149075
83537.677448637
83537.0194652627
83533.1364267124
83533.7600984575
83530.9509633033
83530.1201583312
83528.6534841435
83529.6027512072
83526.6164279454
83526.1341227047
83522.1353221908
83521.959208716
83518.5780526048
83518.85030149
83522.8299071497
83522.7653273246
83526.9629095076
83527.4305469934
83522.2458106415
83521.1727474066
83525.3071420731
83528.0945110148
83524.4990227022
83520.6185969214
83515.9238118713
83517.266129481
83539.9484227971
83526.4569113557
83520.2603698625
83510.7715344581
83531.8701585868
83524.2406843355
83520.9299476796
83515.0776659031
83520.116702898
83527.9153952653
83515.7867372067
83516.8870755537
83509.4334428494
83518.2779679612
83506.1323557344
83500.1473456206
83485.7978098272
83484.5212016428
83482.9767607839
83479.076392165
83465.8298001193
83462.6710305318
83446.3518461664
83447.0825997101
83435.8145972637
83436.0155057835
83450.4248116509
83451.69710546
83436.6126262537
83432.0393335714
83433.0678588332
83427.0428612778
83406.911335518
83410.9150770672
83406.0611007678
83400.3800725862
83369.0341541865
83367.3315718264
83346.3412801868
83346.0052319558
83333.010354435
83328.5275723797
83303.4628887439
83310.1657633683
83308.5587884462
83307.3571618444
83325.5440903496
83302.9665467311
83295.373597677
83308.1796017049
83324.4702221797
83310.0216818116
83300.947027569
83311.0607375406
83301.9837035525
83293.55246351
83288.7855992444
83300.2269268903
83291.6388701264
83281.6647992138
83273.1634967298
83279.2847326767
83291.8156175177
83286.0891375255
83312.736266517
83322.3439182534
83320.7816228873
83329.8839261214
83326.9127978956
83317.1457997465
83316.0001311532
83316.8951423632
83353.911705132
83354.1424035543
83347.501810029
83347.8188591547
83341.2666995657
83340.9835354845
83334.3739948541
83334.4218503022
83380.3858367498
83379.4488298981
83414.7064267405
83415.8474876096
83442.205763023
83441.9179027035
83444.881230076
83445.1528486683
83452.9621868835
83453.4699482769
83459.7375860427
83459.7834402731
83468.2047205691
83469.0830421035
83474.0856939089
83473.5390197576
83482.2874603386
83485.1184904197
83484.0543835571
83485.5587097833
83488.4997132459
83487.2037432702
83478.1835324139
83479.8739324309
83483.8952777216
83485.3953445504
83482.3880881269
83480.9646423248
83467.9428267762
83469.7284965076
83473.3062330011
83471.5548651575
83481.8851471335
83483.0051767152
83496.7158941859
83495.9950043276
83513.8248051949
83514.094458537
83535.116795893
83535.2243860339
83532.9623013656
83532.6855454439
83560.1751504154
83560.9320444016
83591.3084642427
83589.9058376001
83614.5832568834
83616.5893061032
83639.550343238
83636.8601921683
83648.943432588
83651.8946409566
83672.2624592308
83670.0335053239
83674.2625531106
83676.2979192404
83685.8724042158
83685.0141405653
83689.5688530513
83689.9686750094
83685.755819248
83685.5344740688
83684.5354422522
83686.0640301543
83684.0160426857
83682.6448209541
83676.4492696306
83678.3479562842
83671.4765598656
83670.0486201418
83665.3319263692
83666.4839812267
83655.7211687933
83654.8871959473
83649.0555637458
83649.8311807451
83642.569628266
83641.9214700555
83632.7051953619
83633.1175849796
83625.6536157101
83625.3039140787
83619.9161179667
83620.2824786094
83613.2000122614
83612.9586345102
83606.7780497809
83606.9947674844
83600.3567875891
83600.251245917
83594.3579257943
83594.4514258547
83588.4071891424
83588.3807635089
83582.7432528457
83582.7830718287
83577.3775879509
83577.3902868693
83572.3139745854
83572.2872914349
83571.8553339503
83571.9076368089
83567.4125884266
83567.218449771
83566.7543543372
83566.8921861788
83566.2224811638
83566.0594026269
83565.1971056854
83565.2908188618
83561.6620915417
83561.7475640029
83561.0132582028
83561.0046047143
83559.9422699244
83560.0322250031
83559.1145597265
83559.1018997825
83556.4978580394
83556.7689479175
83555.1585027193
83555.1245306152
83554.5510084257
83554.8329218401
83553.1944928819
83553.12583962
83548.4021671308
83548.6810728954
83546.1312866671
83545.7455501627
83541.6357152833
83541.3751306189
83537.521606542
83537.7424508137
83532.4590520756
83532.3380719641
83527.9549382091
83528.553993951
83525.6732636485
83524.8014153005
83523.1801033578
83524.2921050293
83521.2502929073
83520.380159056
83516.1083169453
83516.2686061277
83512.7216040193
83513.2890768828
83511.6951759938
83507.8834931709
83513.5473116482
83514.1880174978
83517.5480682842
83517.223508402
83510.9412246232
83510.9998136123
83505.6559940968
83505.8158752292
83508.7809857685
83508.052163175
83501.0101781643
83501.4270933011
83508.2765490127
83508.99980438
83503.5464283024
83501.9189783933
83510.0691956058
83515.1433846141
83503.3473787504
83499.5551343062
83492.8781307359
83498.6428470161
83489.5990759459
83486.4554738581
83478.3008060968
83488.9258192099
83466.1379482813
83467.8791095587
83452.1190398607
83455.3682375354
83430.9093192486
83429.0414410491
83414.5488854203
83416.1911743978
83399.3450394885
83396.5811053336
83420.5887885942
83423.0561577529
83415.5414359288
83402.3591132591
83372.8833883295
83379.2105448938
83380.9539610919
83356.8277337703
83354.6813658264
83330.9810776629
83334.2071231177
83324.188806712
83323.5108442374
83306.3030023448
83302.9162409064
83307.7600529831
83301.5426841955
83298.1575761411
83306.5337122954
83288.6205640871
83284.9971959827
83279.2202666716
83280.8848023429
83282.1097731989
83277.1495304555
83286.2440005011
83292.1188756088
83286.4643379594
83280.7374575338
83277.5330142976
83283.9381188873
83278.8546861488
83272.5961876822
83265.6578306054
83266.8427650509
83261.7330116173
83261.9443390488
83257.0971467842
83256.956156344
83263.018521245
83260.4796718011
83264.3725398948
83265.6340697491
83267.7791718324
83260.0154552226
83255.6160625338
83252.1517813813
83286.890597517
83283.4202356265
83270.173152725
83272.4984580706
83253.3141173798
83248.8201698606
83228.5188867228
83233.0514163225
83283.8927537211
83280.5370686453
83265.9047008439
83268.7767678239
83250.6887740718
83245.1122363128
83221.2045793232
83230.9710158763
83210.6726758938
83199.5230932748
83181.2583188381
83189.0291923445
83216.6919891686
83210.7557075645
83207.8483090046
83209.8006963897
83207.5049743707
83206.2814519815
83206.5089095049
83207.271583728
83207.981713454
83207.2942745537
83279.0803009841
83280.5700374884
83281.4059209573
83280.0304267942
83283.3425185379
83283.7173901548
83308.8730197624
83309.8607534477
83315.7706192577
83315.2290899467
83325.1082741485
83325.2437076389
83338.3606964122
83338.0973652411
83355.2112290612
83355.5318351524
83376.9804666225
83376.0971485626
83399.0983717741
83400.2682551367
83425.7257276487
83424.1597856472
83447.5106838861
83449.2210494724
83471.963483723
83469.9720658902
83487.9137738043
83489.9303775622
83506.0834571531
83504.0576487265
83515.6443108005
83517.4358643266
83528.5179430743
83527.0306213939
83535.0997780361
83536.0832110608
83547.1108308032
83546.6999773029
83559.8318984573
83559.8143706666
83578.4019609847
83578.413864667
83602.998154868
83603.4635909889
83625.6137143701
83624.5834010897
83641.655829636
83642.8124601789
83646.7148940221
83645.630806747
83645.1743254774
83646.0523069311
83639.6856534861
83638.9551795181
83633.4150710136
83634.0320815255
83626.496632137