/*--------------------------------*- C++ -*----------------------------------*\
| =========                 |                                                 |
| \\      /  F ield         | OpenFOAM: The Open Source CFD Toolbox           |
|  \\    /   O peration     | Version:  2312                                  |
|   \\  /    A nd           | Website:  www.openfoam.com                      |
|    \\/     M anipulation  |                                                 |
\*---------------------------------------------------------------------------*/
FoamFile
{
    version     2.0;
    format      ascii;
    arch        "LSB;label=32;scalar=64";
    class       volScalarField;
    location    "200";
    object      k;
}
// * * * * * * * * * * * * * * * * * * * * * * * * * * * * * * * * * * * * * //

dimensions      [0 2 -2 0 0 0 0];

internalField   nonuniform List<scalar> 
207032
(
0.015762249908887
0.0167964507652141
0.0219877051722432
0.0209312060498747
0.0164765582649608
0.0163988975508859
0.0205333532718974
0.0198798817944707
0.0195111284711582
0.0156667556785786
0.0160020296521921
0.0154895122921126
0.0153164650271444
0.0153812048788721
0.0155491318621205
0.0161355617076112
0.0207217490460204
0.0205282888900085
0.0157372933442393
0.0158306225776244
0.0218656060739355
0.0218090934173976
0.0162942045128133
0.0156321632833336
0.0154430311462572
0.0155157294580261
0.0157281783715214
0.0165274158490151
0.022943792072252
0.0230977991406701
0.0159829139527517
0.0168298298857208
0.0242160116128337
0.0240207240066709
0.0173597483558418
0.0173442396344672
0.0247598264794237
0.0233480899460938
0.0169342045399092
0.0170335959401703
0.0230872023482699
0.0223090215166448
0.0170936869255107
0.0169635123860732
0.0207074749105123
0.0194004326125189
0.0165806080519205
0.0160014275171359
0.0184433664284365
0.0170955803368339
0.0154593988756317
0.0151585943977705
0.016335235816877
0.0157529036927682
0.0153139956494084
0.0150257864587851
0.0150622584300581
0.0150487633060053
0.0150142077147987
0.0150104782007086
0.0150068932618666
0.0150208766042518
0.0150425536106336
0.015080601726226
0.0150462097533326
0.0151573812779466
0.0163774719515322
0.0164072638647119
0.015173345192801
0.0150558132050071
0.0150424473693599
0.015634891343162
0.0157167465046145
0.0153049614807294
0.0153151788596394
0.0150205612560236
0.0150220948809856
0.0153518164189294
0.0171368366301027
0.0170256901855011
0.015276785855369
0.0150892196392951
0.0151441713899053
0.0151582839477936
0.0150976979153741
0.0153751473019898
0.0156016041161873
0.0156201556579443
0.0153896633997103
0.0152669565162703
0.0154093575879148
0.0151768963631365
0.0151110977634214
0.0150776589388789
0.0151145809566474
0.0151932821692021
0.0151284118383033
0.0151791016919862
0.0152431285420623
0.0152884878735636
0.0152323079816792
0.0152892028935091
0.0153559969839585
0.0154809356166249
0.015362856028467
0.0156933266255268
0.0159887738828151
0.0163551459469086
0.0161064395451914
0.0174193521497476
0.0256707628778681
0.0253545539946455
0.0178646161692078
0.0180159278268908
0.0259594995654771
0.0252801729243394
0.0175780374901828
0.0178958959446402
0.0261748404238609
0.0269925170971426
0.0181229854250062
0.0182591479597561
0.0265721556586011
0.0268065398557139
0.0184035757122469
0.0181351513219484
0.0273422181419664
0.0300890994699065
0.0195053125050996
0.0192230909022134
0.0290594627737313
0.0285376947774905
0.0185525279380513
0.0183669149237567
0.0303894022690629
0.0293174550791074
0.0176902117683055
0.0172666500644219
0.0263675511803568
0.024239296460084
0.0171400129559681
0.0167653083115169
0.0232771466849591
0.0217037598768447
0.0166908551155279
0.0165093134731243
0.0203859268561229
0.0191283693132024
0.0161765410188682
0.0164380912311385
0.0202473866269874
0.0181784482369914
0.0158000944363405
0.0154920844404265
0.0171666967077756
0.0164045039337553
0.0152255817350088
0.0150576793384089
0.0150234826830093
0.0153197463933594
0.0158162736137229
0.01581299873498
0.0152850126959776
0.0150104184629546
0.0150322195519859
0.015018581949908
0.015007200439222
0.015012023939915
0.015033990930556
0.0150384800566978
0.0151231307220167
0.0150924001218398
0.0151788822865188
0.0163975859349976
0.01642031492972
0.0151141603000358
0.0150151600174035
0.0150033081552305
0.0152869459676757
0.0158169624794068
0.0159095704103632
0.0153427527427052
0.015001000225396
0.015011572948063
0.0150063279364722
0.0150037328182314
0.0150018120219532
0.0150037436066721
0.0150080393073605
0.0150030832611446
0.0150046987220615
0.0150159670984815
0.0150104879389443
0.0150040518310247
0.0150026610244184
0.0150036697718859
0.0150007550100376
0.0150004928676095
0.0150011292915147
0.0150024778765033
0.0150057457970725
0.0150025412658752
0.0150068201045848
0.0150179556238993
0.0150589403406447
0.0150297166781466
0.0150142305869333
0.0150235901338316
0.0150649623997331
0.0150467952458571
0.0150709591001421
0.0150885419513463
0.0151206383655579
0.0151056545582692
0.0151420964115719
0.0151757489582329
0.015216325687542
0.0151815540071537
0.0152267974336296
0.0152625019999717
0.0152782030530799
0.0152418670043767
0.0152986138999736
0.0153511053817064
0.0153704541969476
0.0153170879238092
0.0154558060586498
0.0155965472391135
0.0156365016666626
0.0155172024889953
0.0161643796419616
0.0163876082597617
0.0163734324546113
0.0161631470628387
0.0179801936986707
0.0181433213097029
0.0182731482211706
0.0183037378842673
0.0181274019222895
0.0181072726422838
0.0192372916175653
0.030633903677752
0.0315750103987038
0.0194723622293493
0.0196247424668674
0.035056459397921
0.0332742530545844
0.0194319290150314
0.0186558734927285
0.0320906713807133
0.0304317162223798
0.0185424222312984
0.016698746534813
0.0160870726738301
0.0159317809106399
0.0158925437561883
0.0158395616794298
0.0159639232915474
0.0159726480521785
0.0162826439228399
0.0256627878383131
0.0242215360821178
0.0161989144036207
0.0161531976118698
0.0229101930320229
0.0216681341831211
0.0161315078929655
0.0160858255778672
0.0203388199019441
0.0203444123816913
0.016067280021089
0.0161553548040492
0.0196496552592967
0.0181937459288677
0.0156975812738078
0.0153846945490517
0.0171657467300347
0.0171908913721464
0.0152428654241555
0.0153714157689626
0.0174193010631174
0.0165755012663641
0.0151585442190271
0.0151338935134605
0.0166614286971191
0.0159604129363961
0.015373154967592
0.0150032610743297
0.0150099711516143
0.015006613758131
0.0150029719262316
0.0150016805219929
0.0150036956987528
0.0150037886487909
0.0150016697841792
0.015001625329506
0.015004162885123
0.0150047492822981
0.0150015767271002
0.0150008354793229
0.0150044075001036
0.0150023625604016
0.0150017213521521
0.0149996942660991
0.0149997970373058
0.0149995475912706
0.0149990016704149
0.0150016936040705
0.0150044244478641
0.0150186188409911
0.0150104234534338
0.0150074287817297
0.0150098126548708
0.01503118241212
0.0150223711279517
0.0150569413958852
0.0150750178394087
0.015094784874554
0.0150810503920039
0.0151136137748119
0.0151235850522816
0.0151130609321566
0.0151020290859445
0.0151351483953136
0.0151452261155588
0.0151560261460118
0.0151407360866483
0.0151752549630784
0.0151892774465995
0.0152077945876176
0.0151928979183135
0.0152438057756487
0.0152787335703008
0.015300082972521
0.0152656429588181
0.015285771839703
0.0153200194980027
0.0153398400517041
0.0153059450576208
0.0153688263556792
0.0154297864091005
0.0154496887980671
0.0153907510423256
0.0154804062234655
0.0156070198429854
0.0156206662227313
0.0155047542448206
0.0155567437607887
0.0156612381567624
0.0164276161246162
0.0162300283696865
0.0162188332353889
0.0164118493432206
0.0165625162391324
0.0163917388822894
0.0182367502361964
0.0181926976801488
0.0186362510554526
0.0187418627109946
0.020861101485389
0.0200688707019036
0.0356851035282254
0.0379166756645256
0.0429958541180578
0.039245438800043
0.0201304873449448
0.0214775952366958
0.0189345254922756
0.0193195923414298
0.0193259930250514
0.0189623073789719
0.0214019886812686
0.0202309411494138
0.0419635488593488
0.0458112235499185
0.0440698521329253
0.0208663356021563
0.0201144486483933
0.0417147133297146
0.0433080905988996
0.0201305799259731
0.0202112965339904
0.0436534444641017
0.0390627544306511
0.0202231978250762
0.0202306745342467
0.0398158032057267
0.0364040542107666
0.0202205693605767
0.0193900558283963
0.0360093438904224
0.0339121729686541
0.0190337710763675
0.0197346208974031
0.0340852944012028
0.0339275467581973
0.0195502505230143
0.0179949066322604
0.0298320074014813
0.0272786967804119
0.0172362117434422
0.0168622811320336
0.0250495724821085
0.0244719844211769
0.0166558979766775
0.0166298478655939
0.0228753909447498
0.0214101979022006
0.0165944677066158
0.0165769213411003
0.0214821834029514
0.0223924834989747
0.0164454517189398
0.016336729558277
0.0205618969104395
0.0220312705797635
0.0163450769007815
0.0161346103716351
0.0215270367109046
0.0228208516793978
0.016154380595829
0.0161792710232707
0.0243341523902348
0.0260481302900949
0.0162367228591447
0.0163097459574759
0.0280222988632252
0.0270699896848758
0.0166804850362143
0.0178636247364629
0.0286591489833016
0.0252435467027578
0.0162152952667257
0.0161012335470989
0.0226500590289968
0.0202100196641631
0.0160349896940393
0.0156184818887313
0.0185569946964534
0.0186634882466663
0.0154507424684836
0.0153333496262941
0.0175281908182052
0.0173193014451474
0.0151288455742038
0.0150602322016801
0.0165549574145095
0.0159013171554607
0.0153407319409277
0.015001636054042
0.0150071377806301
0.0150113638695732
0.0150025805769894
0.0153398152492581
0.0158978782553357
0.0165496940381853
0.0150681154604737
0.0151452102425869
0.0166561737811336
0.0159570630128734
0.0153704870996192
0.0150047543187283
0.0150090612957619
0.0150087908194101
0.0150033837275052
0.0150028124844036
0.0150062580943618
0.0150048664074518
0.0150018180263179
0.0150015808641173
0.0150051587319049
0.0150066441617557
0.0150017013155896
0.0150014131219713
0.0150115675094497
0.015043421487708
0.0150089100479834
0.015005001387184
0.0150021595192379
0.0150179910474414
0.0150368737352489
0.0150769395068874
0.0150454414850744
0.0151036365995138
0.0151684407032237
0.0150695562633503
0.0150395802440547
0.0150896155252905
0.0151295706929985
0.0151550231081295
0.0151198122306051
0.0151599084402472
0.0151946081684723
0.0151317892651538
0.0151185389530042
0.015153849141624
0.0151665183583334
0.0151557920220624
0.0151468792387686
0.0151778594746767
0.0151868282507939
0.015177891317509
0.0151690406790991
0.0151849769843378
0.0151947027421213
0.0152055424762522
0.0151912106727498
0.0152099450138502
0.0152239007103617
0.0152266367176708
0.015212240700577
0.0152312402246494
0.0152456173727202
0.0152651593725287
0.0152507074647133
0.0152700484022315
0.0152849937666644
0.015358500304019
0.0153253393529276
0.0153423379456632
0.0153745349789401
0.0154657338713518
0.0154104119994255
0.0154293179746237
0.0154817383072456
0.0156338474475895
0.0155275390232294
0.0156120354060439
0.015689210673547
0.0164844349779224
0.0163100950366822
0.0165158510315843
0.0166313075183373
0.0172260184969013
0.0170542866845855
0.0171268718944727
0.0172837919265643
0.0189541181815084
0.0186444764415653
0.0186032011809461
0.0187511583723136
0.020080534454357
0.0440032259220452
0.0468907306384643
0.0207006977377092
0.0207157658937689
0.0510900311276981
0.047690251643033
0.0201126225439894
0.0200409142351033
0.0490534151661542
0.0454127348232333
0.0200498937278278
0.0202225835050316
0.0422105162250528
0.0437631481964954
0.0202736707291921
0.0198584692534018
0.0394857185385641
0.0364906118904208
0.0197767777192498
0.0197424701308306
0.0356921901604369
0.0337549176052361
0.0195230268055002
0.019245184853765
0.0310805832480645
0.0283935225937089
0.0175933128743436
0.0167845841343136
0.0263133024140061
0.0265511160822573
0.016716237735831
0.0166513733876669
0.0247131642991098
0.0230711912029879
0.0166094096606199
0.0164741263647564
0.0242607623578182
0.0235891994062638
0.0163626437812771
0.0163975793789993
0.025429279539754
0.0276038957900833
0.0164570561846516
0.016536043786179
0.0301356691493897
0.0330551579554342
0.0166844083906463
0.0168586738542442
0.0305238461629005
0.0290384726130353
0.0175851792754446
0.0182624140807126
0.0300097135507606
0.0318659880546441
0.0183485017920096
0.0182207995824013
0.0305872173909556
0.0296810876339119
0.0172604045798645
0.01673306442496
0.0260622435239777
0.0237852446083878
0.0159071190137292
0.015769428118201
0.0217794796927042
0.0200772226481266
0.0155970771658132
0.0153856041996246
0.0193184891403848
0.0182307150976569
0.0152166178193624
0.0152756093505828
0.0182184627025904
0.0173129014709359
0.015135870387363
0.0153549661311577
0.0175183851095482
0.0174084625670215
0.0154459739186953
0.0152672723428644
0.0171650510016946
0.0171483399189122
0.0153699011218669
0.015167160565125
0.0163892681621999
0.015808767235089
0.0152825179432683
0.01500623125154
0.0150261596725115
0.0150135659626327
0.0150039536290328
0.0150085837251646
0.015030699877615
0.0150513297201382
0.0158154697412717
0.0153167900308865
0.0150170721429886
0.0150270908805507
0.0153126238833965
0.0157543216406055
0.0150625448311234
0.0152643795867763
0.016340122409071
0.016422333546111
0.015251311270013
0.0151625961305607
0.0163711068568244
0.0170316901923472
0.0172044708344609
0.0155180437074061
0.0153561235478975
0.0156534987771248
0.0157846954671698
0.0184722647331739
0.0180769550527069
0.0186944865503463
0.0191391330429985
0.0158670215704436
0.0156500507330415
0.0153998457628643
0.0156102332503564
0.0155900177631357
0.0153857181717156
0.015114874253403
0.0151847700424658
0.0152091489619189
0.0151316674000381
0.0152782073600996
0.0154130313406817
0.0154868582043132
0.0153282208535703
0.0154032227578684
0.0155646274277019
0.0152709122718361
0.0152112999370828
0.0152837891430388
0.015338426761896
0.0152384096045024
0.0152035094024643
0.015251250754616
0.0152816364241632
0.0151982007744326
0.0151854891038935
0.0152341018448558
0.0152438998060017
0.015221087341062
0.0152131687429742
0.0151823895583128
0.0151926252568951
0.0152138030683499
0.0152056686897603
0.0152036770574409
0.0152130889986913
0.0152322338503899
0.0152228674138744
0.0152290669069337
0.015242939104943
0.0152625677975127
0.0152486670258727
0.0152681340382046
0.0152825248305414
0.0153024025702261
0.0152860646811047
0.0152877504769833
0.0153046014592908
0.0153251478385593
0.015306009902226
0.0153592762275169
0.0153909659922427
0.0153973521684163
0.0153693369731755
0.0153830233559788
0.0154089087765027
0.0154907501482999
0.0154478949797017
0.0154569494952133
0.0155007816025933
0.0156362831409075
0.0155489721406173
0.0155632685503493
0.0156536226412117
0.0157046227863058
0.0156343798255053
0.015652727196569
0.0157095470022468
0.0157125462644798
0.0157270238349352
0.0156217313246306
0.0156931356150014
0.0156914293683713
0.0156179392218002
0.0155405698643476
0.0156379267777455
0.0156294234330553
0.0155344141929433
0.0154406106412053
0.0154877691899908
0.0154829145370857
0.0154365480087917
0.0154904347918131
0.015523895951005
0.0155322145358427
0.0155345024210619
0.0155341735180886
0.0155080067840171
0.0155064241181666
0.0155022879964839
0.0155001997691013
0.0155147087902429
0.0155137716234475
0.0155374304577295
0.0154442173265054
0.0154340825403798
0.0154310815666187
0.0154349261017636
0.015445484200704
0.0154398101337232
0.0163867397516897
0.0239003802509043
0.0221399601480257
0.0156829700496609
0.0154975102939875
0.0206346121816271
0.0207472923505187
0.015643066526545
0.0155442628307816
0.0193270010240778
0.0200143663402058
0.0159659531919914
0.0155529227929028
0.0186347685793544
0.0185944794569664
0.0157186242313596
0.0155003385215688
0.0181357171932213
0.0181578341977041
0.0156528095170975
0.0157792726494596
0.0182242321597953
0.0186383432478914
0.0159817416484886
0.0166027781599776
0.0196437699703598
0.0203496905550932
0.0166704909966516
0.0164666999213928
0.0207285329111712
0.0211439376258148
0.016617686885616
0.0162575923663423
0.015860917292308
0.0205252792392117
0.0209127808925831
0.0200663655948943
0.0159746410342611
0.0156913591261347
0.0195986512009177
0.0220658356333924
0.0217249222664693
0.0162691021852581
0.0166414389057022
0.0157281646382196
0.0155227979496205
0.0157858860312082
0.016024808149427
0.0154426698204345
0.015384796409116
0.0154138059974409
0.0154700327087696
0.0153064600673852
0.0152754491210276
0.0152672980181719
0.0152986350852033
0.0153063258065621
0.0152781558199731
0.0152998950826843
0.0153280352471373
0.0152648677703039
0.0152517422552537
0.0152523349597248
0.015263130208649
0.0152398593042843
0.0152307655870002
0.0152300522813063
0.0152394036835685
0.015232861692672
0.0152248133633354
0.0152450698950248
0.0152531367797258
0.0152521594997227
0.0152427692377227
0.0152627168223585
0.0152728383332189
0.015294056239335
0.0152812667106317
0.0153007024608687
0.0153165839097447
0.0153233532124619
0.0153046759612748
0.0153146021346063
0.0153305927208917
0.0153422448836085
0.0153279532554429
0.0153290038379042
0.0153436222810583
0.0153434607785734
0.0153286796903977
0.0153767626499113
0.0154019615813492
0.0154112017978888
0.0153879429642261
0.0153972312462062
0.0154216085359285
0.0154998862176133
0.0154602735545967
0.0154736852877167
0.0155149254494989
0.0156451811701701
0.0155646834125368
0.0155850826330526
0.0156710846415701
0.0157219319649639
0.015652650306007
0.0157112074189037
0.0157529083954285
0.0161208072697563
0.0161110316367106
0.0161413806352922
0.0161447838147893
0.0166766959547806
0.0165730473370932
0.0166309426431628
0.0167223975043203
0.0173280878609374
0.0171846686664422
0.0172566119335981
0.0173896467483911
0.018731225186632
0.0186193912498834
0.018666995271169
0.0187732219012386
0.0201882927216007
0.0520536909934889
0.0562033193322483
0.0207775609202589
0.0208678702379115
0.0624892822888935
0.05733804357674
0.0202890186699163
0.0201470054479317
0.0595530106108158
0.0537853135156678
0.020079830871654
0.0203892372472741
0.0517479411351105
0.0538789366839661
0.0203906952329329
0.0203286749658735
0.0485470443224188
0.0430057452670851
0.0207351935758086
0.0212022734311296
0.0399372021655204
0.0374573021730656
0.0199612781103251
0.0178683970320499
0.0171135027452599
0.0166419819939667
0.0164912166827186
0.0188216998661539
0.0311270528250035
0.0286224449738208
0.0172795105465566
0.0166905673388947
0.0315059753342753
0.0287410465867264
0.0165581520404432
0.0165103551844145
0.026324799943535
0.0163298259010702
0.0159514344077519
0.0159796432198076
0.0155576342387858
0.0156347650303536
0.016163882569577
0.016587441654688
0.0179867140111024
0.0315234759926597
0.0340387803503329
0.0186354960799179
0.0191133541507732
0.0340989810540984
0.027874985980626
0.0173859873583944
0.016815719440541
0.0268344711471258
0.0273968642576272
0.0174652890289683
0.0165751598928597
0.0240842759480743
0.0223577764969711
0.015859832538495
0.0163795258909558
0.0248057961531466
0.0222815577537779
0.0161508477431422
0.0165960546104973
0.0216641395476933
0.0228864306965352
0.0166510463340398
0.0166009017459018
0.0214024668719829
0.0204758711772117
0.0160077819057784
0.0159841237708705
0.0202539876794501
0.0195976003736834
0.0160680386258858
0.0163969228346803
0.0203906689467515
0.0193597702913323
0.0161813289325271
0.0165902807054147
0.0206892238688592
0.0210647143449809
0.0171366394953584
0.0171628497053506
0.0217428857091043
0.022314553003906
0.0170958866624253
0.0173736305415015
0.0237419843055682
0.0233042928136223
0.0228572910069062
0.016535008832849
0.0169345372024606
0.0174034292195185
0.0170961019791644
0.0243431372780971
0.0246522939581333
0.0250830619881061
0.0177030887072428
0.0179445286881797
0.0268320400939406
0.0263916411550826
0.0264448551523021
0.0178755146622258
0.0180500385645752
0.017478133934404
0.0171391289934596
0.0169782007108544
0.0173772822063454
0.0160694384433134
0.0158479487503802
0.0158469614097676
0.0160663297567626
0.0154995549602405
0.0154325195330743
0.0154683092119303
0.0155343475597251
0.0155012624441284
0.0154475466994308
0.0152980073664965
0.0153282995840416
0.0153512414486957
0.0153212231303766
0.0153447495326271
0.0153749185221322
0.0153500692939681
0.0153224144772312
0.0152733657017001
0.0152862927326413
0.0152842498272035
0.0152736772417147
0.0152515301283515
0.0152605347716268
0.0152598823513912
0.0152506257821057
0.0152712327716736
0.0152813584646139
0.01527437944414
0.0152654944694317
0.0152846167969815
0.0152964813489416
0.0153200993788358
0.0153047750854147
0.0153155242242454
0.0153283207669488
0.0153410503669076
0.0153299755472785
0.0153257444298685
0.0153371720015795
0.0153365369475583
0.0153248689967493
0.015328124544715
0.0153420682019459
0.0153550692565067
0.0153420621695685
0.0153419008453192
0.0153553682236687
0.015356361921238
0.0153426244379748
0.0153422684945009
0.0153561843393722
0.0153690567510407
0.0153550961389116
0.0153980633645473
0.0154206851435975
0.0154341712701099
0.0154099224554214
0.0154707691769223
0.0155093250974422
0.0155288924728601
0.0154879540404802
0.0155769096854808
0.0156548891557126
0.0156883856618111
0.0156026341130494
0.0156695879423321
0.0157401974336223
0.0157736811220286
0.0157320701687623
0.0157527251444147
0.0157946303471241
0.0163162617351339
0.0163075153806205
0.0163150021066033
0.0163163030058404
0.0164139796359108
0.0164186611234768
0.0164161680557831
0.0164017371364989
0.0167712494012119
0.0166922971535542
0.0167570165882733
0.0168242232699037
0.0174719190600952
0.0173405687105323
0.0174328145666019
0.017564027776936
0.0188360055171641
0.0187337183816263
0.0188143330642585
0.0189106537585447
0.0204052766629662
0.0635836339426991
0.0699451732457447
0.0209746921279363
0.0210989051746012
0.020537957720547
0.0710477105183382
0.0790210470274926
0.0900075376286396
0.0212390195662748
0.0206865327786266
0.0798988807782577
0.0837071998268991
0.0204434913932403
0.0203255092032252
0.074346775273507
0.0663642867994771
0.0202277101367795
0.0209823452966636
0.0658737252600864
0.0659870791654275
0.0205536355705579
0.0204595933014465
0.0595248091645269
0.0547484658450696
0.0231456478726319
0.0227177097045285
0.0483080328369163
0.0433206237879657
0.0231273609430444
0.022037820068129
0.0387203520753385
0.035508942985563
0.0213218895166235
0.0204250299436824
0.0350397380833106
0.0387946614796024
0.0188712702395768
0.0179147549230849
0.0346656089484835
0.0166119265579489
0.0162138890637184
0.0163410990220244
0.0158348255292154
0.0158062196230043
0.0158934798665802
0.0155145583331951
0.0158214253487446
0.016283793979956
0.0175982349495975
0.028019619651551
0.0287370833797698
0.0179956925502224
0.0180883513850686
0.0289973638073778
0.0329958937661222
0.0192185155759521
0.0182723414145281
0.0305472984592432
0.0291713011588544
0.0181098660385606
0.0177371440983182
0.0278233577235087
0.0268569437959074
0.0171327197415017
0.0169714144837951
0.0315320678593117
0.0288525498431883
0.0168418738257896
0.0167428098125806
0.0265990896592946
0.0245655165475111
0.0166666942953793
0.016619464448656
0.024284028385145
0.0231319275688385
0.0161121550574185
0.0163599161034972
0.0235174963772676
0.0220538985625177
0.016295247220564
0.0162566813027207
0.020517491123233
0.0224501811300287
0.0163680351835945
0.0165717021379116
0.0216676410306368
0.0216936119203559
0.0166397718342755
0.0169861734559367
0.0223443175705188
0.023292140103971
0.0178218561490798
0.0179055056174859
0.0236712782863233
0.0245694253262582
0.0177363275146297
0.0180979341524716
0.0247404187552058
0.0268692842644778
0.0181944609214998
0.0182194270905607
0.0286157346078058
0.0281480311446661
0.0179577655185711
0.0180488243090496
0.0178282922062986
0.0277773164226089
0.0274465758658424
0.0286709072879217
0.0294634664269071
0.0178515175741068
0.0180829543335882
0.0172906011766871
0.0170009418853503
0.0160036082568538
0.0162278004118036
0.0161793120947381
0.0159779681354599
0.0155039348787101
0.0155700785533538
0.0155293623166906
0.0154771192525366
0.0155043127182307
0.0155554189147647
0.0155782131218438
0.0155286985948571
0.0153680065732752
0.0153984521934322
0.0153713508801057
0.0153439099538234
0.0152950946726942
0.0153087399740126
0.0153063657948931
0.0152950557910798
0.0152724098441837
0.0152822568162985
0.015305071078653
0.0152921567671221
0.0152906114091911
0.0153037078936602
0.0153278265520649
0.015311198113679
0.0153223809667012
0.0153363843905641
0.0153498886052427
0.0153377197940481
0.0153310030150335
0.015341880986656
0.015357071358901
0.0153467758058298
0.0153451646411888
0.0153557336380071
0.0153512731611281
0.0153405562824055
0.0153393321244629
0.0153503636073247
0.0153644932174637
0.0153533082183392
0.0153553921085254
0.0153683563771481
0.0153686639234783
0.0153551421421709
0.0153555328762954
0.0153693174168668
0.0153823746141051
0.0153681726645855
0.015367628819319
0.0153819964065882
0.0154303302655219
0.0154078938772771
0.0154219392576264
0.0154465135541897
0.015518897324262
0.0154806784720573
0.0155011737837126
0.0155425318338634
0.0156649926110398
0.0155880189222672
0.0156186842790057
0.0157053008374881
0.015758598632692
0.0156861806612433
0.0157028037570777
0.0157769618442554
0.0158148714927765
0.0157721409521546
0.0157915884335934
0.0158353048367722
0.0158551765775352
0.0158103685080163
0.0158295214405863
0.0158754702686648
0.0164803853765873
0.0165017626446223
0.0164967013460583
0.0164656432668057
0.0165395572513825
0.0165761709934711
0.016569149308308
0.016523894716922
0.0168804042807412
0.0168220807455874
0.0168823200647077
0.0169381916221233
0.0176618259878975
0.0175314620453471
0.0176338843343202
0.017765091341171
0.018996135211255
0.0189070926641053
0.0190098729883399
0.0190924680866812
0.019198299415824
0.0191202541643976
0.0213958048018527
0.103459029916241
0.0904693720164817
0.020850656221828
0.0205774480804614
0.0947130456058951
0.100034272054919
0.0212631143577711
0.0209543789854812
0.096142133091725
0.083769415940353
0.0207758001528834
0.02065879741397
0.0738933537612508
0.0706618225450862
0.0228081332068463
0.0229634650855951
0.0622680111805755
0.063309807264635
0.0243406616010337
0.0245046481202926
0.0542234811945148
0.049068761555636
0.0245663388224819
0.024595840155082
0.0461451029224005
0.0552670624279391
0.024520018494908
0.0234319409087048
0.0225920386204473
0.023210015114303
0.0429607190202096
0.0416293903483497
0.0231483454744634
0.0231078492099014
0.0416118849055251
0.0384941727262592
0.0223468554821281
0.0221435769523124
0.0374736364557637
0.0410632767048298
0.0222182180904815
0.0206199807796816
0.0406426734381302
0.044061662499863
0.0190518879084663
0.0171446928236493
0.039792982129504
0.0362470673817541
0.0168932566772013
0.0169998596969035
0.0335469844155656
0.0336858766982294
0.0180167951074476
0.0180354817912733
0.0372722968919754
0.0345765212420459
0.0184035269762963
0.0185538881631533
0.0379071136555753
0.041668109175939
0.0186962555126188
0.0187529845431871
0.037556850239467
0.0419393387916157
0.0214834348989778
0.0208046204638321
0.0373858355209833
0.0364944937952383
0.0198548458839526
0.0186929786220049
0.0329254010522564
0.0308792009466394
0.0182637290122152
0.0179750099784868
0.0296612375245639
0.0304365582581146
0.0182442954456847
0.018251781860316
0.0310667387269125
0.0362029035156895
0.0193928494529607
0.0214452161858932
0.0417259836078412
0.0360022337969055
0.0205200176781023
0.0192021754614375
0.0326678296920442
0.0298096900280588
0.0187616932232825
0.0182768369345371
0.0316205386042126
0.0377637773174883
0.0173244229823424
0.0171516804316504
0.034357200706217
0.0339476334364716
0.0171292165463083
0.0167574214594329
0.0302579525918983
0.0316016556001572
0.0170754088396756
0.0168300040354343
0.0292676668375406
0.0271206601153047
0.016623902273396
0.0164675277333922
0.0251899384428719
0.026139668381282
0.0165627527184757
0.0167834140123813
0.0247351771322215
0.0247237065101251
0.0168559277904538
0.0172446817746853
0.0260250875657318
0.0294214107306444
0.0179692579059448
0.0181250476171772
0.0294967042392757
0.0308332158411327
0.018288921981027
0.0179768033220483
0.0297097584101092
0.031309104127466
0.0180404197568359
0.0181619168172962
0.0179234242939236
0.0312386798430632
0.0300230452900978
0.0315026299468274
0.0332445988513101
0.0180502760406688
0.0182918961879481
0.0174714027722096
0.0171732252795005
0.0161607028724504
0.0163913791344068
0.0162673106586256
0.0160763477593266
0.0155738131592189
0.0156391433511188
0.0156683037688745
0.0156046000216858
0.0155491946866367
0.0155964059236702
0.0154208221297982
0.0153893361710238
0.0153635911598812
0.0153916281010384
0.0153321273483836
0.0153156762432549
0.0153152812291339
0.0153295669195883
0.015355228471922
0.0153371539916272
0.0153134054786013
0.0153300824090133
0.0153390801542473
0.0153251901063126
0.0153415214278807
0.0153533287857954
0.015350003627114
0.0153381773987923
0.0153549766094009
0.015366166555003
0.0153659593018752
0.0153541707804623
0.0153708742645831
0.0153831415617107
0.015373058888965
0.0153625205006261
0.0153601334747017
0.0153709694117467
0.0153658063739425
0.0153549839271877
0.0153694297163448
0.0153807378888425
0.0153788694425956
0.0153671562445475
0.0153685162620096
0.0153818470202857
0.015382054338319
0.0153680826322673
0.0153813513348672
0.0153957107773047
0.0153956700280474
0.0153810739541973
0.0153803980533844
0.0153951460979092
0.0154403203221019
0.0154180437585404
0.0154340131262887
0.0154588756538683
0.0155288329020618
0.0154908801187837
0.0155144263231249
0.0155561803445673
0.0156756249017295
0.0155994936473068
0.0156347792688851
0.0157220918901544
0.0157386856561043
0.0156508361850295
0.0157193974169805
0.015795281731918
0.0158135655241969
0.0157359829509114
0.0157526115197949
0.0158318403608272
0.0158500944239342
0.0157692985160543
0.0158482683139701
0.0158953644753728
0.0159157970429217
0.0158675646867781
0.0158865338858229
0.015935863013154
0.0159564799622014
0.015906089974023
0.0166449707577284
0.0165947873393917
0.0165771828619936
0.0166354284516821
0.0167072373127967
0.0166454012386283
0.0166252379645071
0.0166950421602884
0.0169382017903226
0.0169962232987641
0.0170531545844391
0.0169899066172084
0.0177371440764298
0.0178718280428181
0.0179792517129538
0.0178378174777612
0.017930772221739
0.01808342457767