/*--------------------------------*- C++ -*----------------------------------*\
| =========                 |                                                 |
| \\      /  F ield         | OpenFOAM: The Open Source CFD Toolbox           |
|  \\    /   O peration     | Version:  2312                                  |
|   \\  /    A nd           | Website:  www.openfoam.com                      |
|    \\/     M anipulation  |                                                 |
\*---------------------------------------------------------------------------*/
FoamFile
{
    version     2.0;
    format      ascii;
    arch        "LSB;label=32;scalar=64";
    class       volScalarField;
    location    "200";
    object      omega;
}
// * * * * * * * * * * * * * * * * * * * * * * * * * * * * * * * * * * * * * //

dimensions      [0 0 -1 0 0 0 0];

internalField   nonuniform List<scalar> 
207032
(
3.36694950955582
8.27157980530845
28.5221301970484
25.8066171663518
7.03510557758377
6.83523064302527
25.4350193418526
24.1323833894162
26.6477693658947
4.51410407664513
5.11801358604246
2.58194210876829
2.17034254439645
2.29050189358915
2.69083210877311
5.54761734537038
25.4554149550839
28.3488202599231
4.68737012044996
4.87210055564842
30.1647862460712
27.1633188416159
6.09297882452843
2.9074129268341
2.41301046056034
2.59194983594319
3.15839205333224
6.82574077217566
29.1527934756418
31.9072866114132
5.38734467944833
8.56247803838779
37.0417418179255
34.5730965655937
9.77800449001585
10.0655707913294
35.8785218694671
31.6735389280042
8.76658814638722
9.63000171465694
35.4639498446394
34.2076047231752
10.052221475825
9.64892700634175
30.4640748277286
25.1982310378258
8.08189391452737
5.33455699632837
19.269372051149
15.3436624953595
2.89283525655684
1.51862120375904
13.7386426243132
14.0712778865682
14.3850306882582
1.07609319416416
1.09084470130726
1.02279571538748
1.00357982683736
1.00224976308353
1.00113994811336
1.00460757434828
1.01646505775292
1.03081191682904
1.01217312245894
1.7382903871281
17.5347418604462
15.3108515907202
1.67931057573269
1.06975587763638
1.04183425165559
16.6687283493714
14.8780131931428
15.0809171298912
16.5571683411628
1.03052194590341
1.0379134647643
2.44203791738945
16.6743563668661
19.3501280082674
2.38541271853926
1.16063304925394
1.20587489532618
1.21188801109872
1.16342835707172
2.9331730435125
3.5437883221186
3.54397558197778
2.94137370628575
2.09340304694775
2.3476020751971
1.21878028755149
1.16793492300711
1.06015065261219
1.08351498649906
1.31757215705214
1.18732625616216
1.27989122725404
1.40011265192673
1.4442820617105
1.37068249409741
1.48172229221364
1.58062563667939
1.91419266361552
1.63399447741749
3.17594438201452
4.02949380385194
5.44116448643551
4.81622513645511
11.0854864096191
47.6661625590533
45.6295491360745
12.0522317013664
12.6617831452709
45.301384811204
40.9950573428078
10.9393180976536
12.0892511270655
43.6695697811992
50.386366324319
13.0356869141375
13.6841414949087
50.6540769411532
56.7573029575307
14.6430962636737
14.6900436949408
62.2512509538024
82.6858720187121
22.4059659026573
18.8713689037581
70.3262161503626
58.3666573453866
14.8746149397721
13.8065178719303
52.6321400064509
43.3367646291698
11.5403567042467
10.4234398491229
39.1436194255815
36.6862725469394
10.117807737425
8.09297261501545
30.7341770835718
28.8064281545753
7.87257448215937
7.32152349248631
26.6743939201277
22.8752813627584
5.95899363793452
7.55219913925512
24.9938063868898
18.2468198112615
4.85823137510624
3.35684772026382
14.9408986385088
13.0727972210465
1.96763930068061
1.03819848419001
1.01055622319197
13.8826514412431
13.1540373966522
11.940349605064
12.034899423433
1.00269453083064
1.0092679898241
1.00318702689791
1.00106648296352
1.00255099178909
1.00907294477369
1.0110036640193
1.32779299502142
1.40774663081103
2.08353022919884
12.6802565602959
12.5438244443046
1.7596143042915
1.00575605001284
1.00167241284139
11.8498111894225
11.8081082766964
13.2079079657713
13.9064492869688
1.00442926384311
1.01018216871216
1.00066429793935
1.0004094050941
1.00011583499115
1.00023866694519
1.00081660416929
1.00027232171661
1.00054345929508
1.00303500581668
1.00118134343002
1.00027480947544
1.00023689619596
1.00037634966784
1.00000365007051
0.999986213215942
0.999953985389238
1.00007400899286
1.00031256364674
0.999980921976157
1.00053300017941
1.0027623010831
1.04111970103035
1.01982792854224
1.00251496168277
1.00524468703844
1.02127227530424
1.01453360576313
1.0259533804229
1.0354935392569
1.05548232249026
1.04606872458254
1.10936178174814
1.14444131685102
1.18464836387919
1.14818450353582
1.21228056717588
1.25349810386174
1.26535317610736
1.22263365968375
1.37278926474205
1.45957855768365
1.4800865713377
1.39067666111065
1.85842687641542
2.2317337174097
2.31782733826727
2.0364569381179
4.89635370811905
5.45575384465908
5.41860017600762
4.88571618202387
13.8028330409538
13.4344119373571
14.0490992158942
15.5679805835665
14.5367440182865
13.1733980915998
18.8569169965698
79.4399766786501
96.1706343945864
22.1106451083241
22.7143063436949
99.0649186449797
83.4228789669993
19.6374177029549
15.1463703618921
68.1699948729434
65.3060761288816
14.7214289066316
6.54797282333415
4.02051140456235
3.28022682046604
3.75063995280343
3.58352799064394
5.08985820808654
5.05184513742126
6.73732857817743
32.6439568386235
32.1805275777918
6.7031338452614
6.66393736284881
32.3682130091349
33.0282290766122
6.82328948813229
6.77963710933276
32.3430654494722
31.9361819977942
6.69503899097516
7.25087572983385
26.4657619344654
19.2185908943194
4.84106617823187
3.30586837410234
15.2447442098928
14.8132127358337
2.54371944376847
3.5296641790633
15.7617850593447
13.4309546160434
2.17776900471775
2.02057286665326
13.7560722047905
13.9444189425229
14.9598404861516
1.00388344807184
1.01156320643137
1.00083544738866
1.00025901455661
1.00009324744735
1.00021814527729
1.00018191061655
1.00009337869992
1.00009173509273
1.0002286644294
1.00034916834266
1.00008194835103
1.00000840694656
1.00031231974316
1.00009882749402
1.00003517142091
0.999943099464139
0.999942565097014
0.999937351892224
0.999918943423305
1.00009045722515
1.00040421822109
1.00361542028763
1.00135017031429
1.00061211396195
1.00096153879563
1.00866179334653
1.00495734454587
1.01971873931999
1.0287327498008
1.03844441751237
1.02907515611877
1.0479690070764
1.05463448892239
1.0467525668403
1.0409022723831
1.06532291429684
1.07177158481299
1.08224349307209
1.0715389701868
1.10405472747537
1.11617357464339
1.13755771023251
1.12280712401521
1.22877603289227
1.27043754963609
1.29888624719652
1.25697714362365
1.28374907984004
1.32643460524598
1.35769360956476
1.31470109221888
1.52346925314887
1.63853988481234
1.66407053951565
1.55298422342717
1.88927263467945
2.20724694523779
2.20196513691103
1.92182041930821
2.1202094003979
2.34674229453673
5.4776069621338
4.99129812455827
4.95983275301443
5.43978069281553
5.89483989088439
5.56517936714345
14.945061279398
13.3745738618789
15.3099902916224
17.2786260438911
28.6731616183531
22.3291222183237
93.6263404569004
113.263644995776
137.102611806395
105.487060305087
22.2119271793175
31.3068504242501
18.0863375562157
18.4224291335404
18.4356950899861
18.1416974772027
30.7351048800836
22.6684547635927
111.633772386385
143.473256756215
121.142065892772
27.7049125025141
22.0345882736922
106.365214429467
96.0611323528839
21.626775595683
22.0054555579172
97.063029904807
94.0395224079587
20.5610194211137
20.6726952890638
91.2685512615806
87.0542879677217
20.6603257954404
17.5962547953172
84.5009772677437
77.1062046785841
16.5301667190361
18.26817426166
65.3947956196677
54.6529284932413
16.6803045950112
11.157592287179
39.7640417178156
34.9489772364528
9.31736754700768
8.35279576631303
32.3674751860271
30.2554366349007
8.26555004533929
8.25489777230003
29.121494560621
27.4231794715399
8.13513821690329
8.13062666486759
31.4659337932983
40.5451358596462
8.69614354955029
8.36991920963566
37.4933563316624
40.901996054235
8.34658126958511
6.83232700940431
36.6662308333579
36.0417091873695
6.7838841822899
6.77737405026283
35.881015386885
36.4710391939596
6.81210754364257
6.89241417425323
37.5510541390659
34.3173809281881
7.6272155648348
9.92902315413132
33.4956524530271
28.0942278970238
6.47354566831042
6.34207255756344
27.2416466276993
23.3247780937367
6.29377039610561
4.77249762437448
18.879184320852
17.6166372202985
3.72848238997096
3.22610793908595
15.6485638601806
13.4120587358929
1.77134254760468
1.41440649892176
12.5006177836214
12.8236228136374
13.6192669876907
1.00346751890348
1.00923685496406
1.00797142479965
1.00296995197288
13.6044795621193
12.8124983182298
12.4972957465878
1.42105193580637
2.02117908199665
13.7715772927705
13.932917068731
14.9140124489277
1.00338971564471
1.01190035042698
1.0012505416139
1.00031920750395
1.00022888545617
1.00053851114739
1.00030171834254
1.00011042752012
1.00008685415754
1.00034027333632
1.00060513782339
1.00009470472876
1.00006955758381
1.0021277848682
1.01791062259147
1.00176926661166
1.00074852071196
1.00018410520703
1.00430178145829
1.01466195342694
1.03659747355809
1.01303481275136
1.29172766299795
1.3753456137688
1.07452146973255
1.04166617611134
1.0948158902192
1.1357332943571
1.1653061045524
1.12099140084819
1.16229805860176
1.20808966362403
1.07012821987334
1.05894833022725
1.08869262855733
1.10049359551061
1.08153106529342
1.07382639273965
1.1068262729926
1.11629568453945
1.10609888655028
1.0984198409199
1.11572063001264
1.12620894866846
1.13678879603791
1.12254415059167
1.14762822319482
1.1624047024941
1.16254277063114
1.14760158902889
1.1755312209499
1.19148883665841
1.22602402241327
1.20879242833058
1.24685186503132
1.26732436715249
1.39285213580422
1.34958886379393
1.38311948690565
1.43174281971119
1.68881496410575
1.58418971298463
1.61938788638323
1.71886105855427
2.20585712159316
1.95902343141393
2.27311176423
2.39732017799775
5.53651642732322
5.13382352865989
5.81569215227761
5.93020203788642
8.64980950058458
8.52738692525409
8.59773070358392
8.63533577372078
16.4833888338834
16.2450846207416
15.7170711129981
15.2274236444979
21.5706658531958
98.3233516278887
110.456961413687
26.4334937925085
26.1798197329555
112.924790218275
98.3784959382601
21.4235422553381
20.4163133181481
93.282122908918
92.1563221058846
20.7265027823645
20.4170137816554
94.7470939683895
94.1603866682861
20.6731612778076
17.4741475544535
73.9901377648456
71.8173105464199
17.3382603338971
17.1245119598206
58.7289564437173
50.194495722065
15.0271824035263
14.3040354898225
44.136141733087
34.9131691765395
10.2555822016092
8.4863538654799
31.534110478496
33.8509948514463
8.25325559330578
8.1833161677487
33.0296410116008
32.3943083148479
8.157907335306
8.67196187752001
41.2786056072506
40.9348678112817
8.33415039970147
8.3446978551004
41.0495633186785
41.9821142384893
8.38725172174311
8.46350366046396
43.5388443638484
45.4971713167407
8.68375504323496
8.10192129262781
40.4536089515071
40.4174245461266
9.79289921809317
11.4745108507602
47.7765284985258
50.5854718980786
11.5682231634588
10.6786520582769
39.6711901729501
29.9008244490778
7.20711911355608
6.11484895907988
24.6107203685885
21.9960017211646
4.59394156046188
4.46617071226225
20.6591587156871
19.1421448904789
4.1500948065737
2.52974543476999
15.5314678512646
14.3688437601526
2.07565114769422
2.28248885531357
14.521960527803
13.4060026039626
1.76207970887441
3.21132629730673
15.6657197827496
16.2725385427424
4.00745141039829
2.76517712887509
15.2036081233701
15.2732480810906
3.3044911481873
2.07517205020481
12.7257487985731
11.9335933944992
11.9846805532588
1.00186561076712
1.00781473108748
1.00207908211164
1.00041526568333
1.00145554323387
1.00840327189517
1.03931752041107
13.1930623450131
13.8435919431621
1.01381340189477
1.10446745239277
14.3406538582355
14.1245108949544
1.11384768590617
2.40039707520439
14.5973903789418
16.0448194409512
2.33212916523367
1.80918148346693
17.6605092901046
20.4609175823432
18.9785918893173
3.72596521094307
3.30439938591311
5.48060700753566
5.06288582796905
23.3117543605987
26.3736383929276
29.4749109118814
25.7989791137482
5.09886085846642
5.16667295591628
3.29677228450904
3.76698776701391
3.75920090628569
3.28889321285285
1.29617756070005
1.38426553057549
1.39491012105793
1.30267790477654
2.29230364544658
2.48255799788368
2.7316363458814
2.39324612289862
2.63035350656758
2.96318955503163
1.53083347998952
1.43073931951877
1.61555336942694
1.66323455713555
1.25959282989958
1.21709468808946
1.29691209938401
1.32788776552396
1.13499935286689
1.12182159569756
1.2084553207744
1.21675259137761
1.17146620948717
1.16024860471607
1.11512032801525
1.12620884338527
1.16085247624949
1.15087796794181
1.14353742252456
1.15431895808772
1.18899468203278
1.17764364098764
1.17817050987176
1.19376474156822
1.23200022022458
1.21540652205204
1.25783930658656
1.27778608048993
1.33282671216707
1.3019519986065
1.28485402106851
1.31622272303809
1.37031584386057
1.32980638196873
1.42084878954922
1.47575876173601
1.49282353271291
1.44008262861513
1.47016316736371
1.52256749825369
1.74231565747286
1.65253688238982
1.67081738504397
1.75615857159314
2.18859212408825
1.98337700343792
2.0279838441285
2.23498776839785
2.41847142556967
2.29337199925555
2.36268542833499
2.42307569868323
2.42338063073243
2.65380562681327
2.28704342692489
2.39872738708508
2.39783091229757
2.2721919957435
1.98160331408971
2.20730361065705
2.1847554459861
1.96307671315365
1.6392386005043
1.73027940318665
1.72367627097889
1.63237384617272
1.74111591354308
1.7836988653945
1.81061180785371
1.81092388534423
1.81646731042481
1.7451422121054
1.74024945167057
1.73736116365431
1.73205958552115
1.80439391863903
1.81508413467925
2.10081920277851
2.0594189065431
1.92789962770901
1.83710196967219
1.84950781820271
1.79625696867638
1.72388058096551
4.21345161554524
19.6871291517852
17.5849696829655
2.87660311349776
2.65338140977164
16.670559501091
17.7739723276037
3.1656592689593
3.10174503605803
16.2364924996664
20.8885136587796
5.54761375439061
4.08527438334577
17.9327442974703
20.2404759167465
5.34931286482544
3.98545691184372
19.4065845737735
19.1073419837883
4.72746512526426
4.91642470413424
18.5196718407756
20.3520825307709
5.4297938321449
8.31360833953889
26.0331683469832
27.3470902903968
8.93444648378103
7.58177379001838
27.564268274067
29.8355674143287
8.18604690914496
6.67951273655671
5.91685197651217
29.3778601725102
29.6870614271264
26.8565276131013
5.4261324485324
5.1995125703177
27.843072871323
35.6873905523021
35.1724778016419
7.88634722562665
8.58784208216042
3.67355678778762
3.14074985638028
4.4078540788464
5.05573378454252
1.98712093585338
1.93285731032691
1.9716914331947
2.0258544662811
1.37583291441839
1.34221089530047
1.32094067283778
1.35481459768693
1.3597057976822
1.32490496130496
1.37328791843217
1.41041552493457
1.26222098607095
1.24324183586881
1.24651481129904
1.26025805441771
1.21083560137784
1.19508950590038
1.1912755468781
1.208365570858
1.20019498869229
1.18848689581565
1.23532111185735
1.24799185598062
1.23169722868259
1.2190950055255
1.26756449742741
1.28348246963861
1.34543731572133
1.31697881450339
1.37403571448272
1.41374571991347
1.39188586150392
1.35176433879356
1.37490948360161
1.41333390796931
1.4461960272506
1.40977430743978
1.39192588691885
1.42564286925807
1.4197146819141
1.38371503845431
1.46766877119695
1.51770755758006
1.54798650518316
1.49730452917788
1.50356074925185
1.55491332556679
1.76559701995482
1.67777710715841
1.70483119962487
1.7852326566237
2.19958179969136
2.00962838422789
2.07343407715972
2.26755430873612
2.45226631090842
2.32590745608674
2.54968181321932
2.54636661804409
3.93155161226009
4.13484294021201
4.17751577495079
3.95715827812463
5.89976957961698
5.8202933292075
5.84951109479544
5.90063693669169
8.56396746089196
8.58203586540109
8.63485010910522
8.57807010620702
14.8451136309451
15.506661118807
15.4371781451571
14.7653415733171
21.5075577037427
101.539927025431
117.440071441677
26.1545334835875
26.2470984708887
123.490741127877
106.306269182651
21.6972013738322
20.3979924117743
102.100699298382
96.9204505434351
20.3444920688953
20.6839651422649
104.028944315976
104.429166231805
20.7914667585083
20.7313146901959
98.785939204467
79.8838562705668
19.7638317175394
20.6042795452499
71.3429222798755
63.2499481913857
17.3054647799929
10.597073405975
7.55037980626872
6.20308531366086
5.76268278639349
13.1442320799198
43.3363677155878
36.2027600419571
9.47696409388464
8.85731109500149
44.5538889416861
42.8735031589744
8.66861669136602
8.65817778292073
41.7653905958127
7.606274480654
5.39009607899783
5.57539167359211
2.52699339975335
2.64743400457976
4.16134301613101
5.107890204051
9.6328332298033
40.3080935388534
42.448481298702
11.0274253669777
10.2827422909264
35.4974136387072
25.3387496625504
6.04532769818679
5.05049129163595
23.1105829181105
25.9288098540341
6.62284830523473
4.8028104432126
20.8877679521672
18.6576353838721
3.4350751058198
6.36438853097726
26.2694766062289
24.7671087226882
6.00434896988784
9.07321693021678
32.7477610197705
42.4668484465382
9.55638574242867
9.59164906357817
38.5013648339652
33.4324563850299
6.75733349564987
6.60954263918664
31.1273388898731
26.039585774491
7.0742000738485
7.55675041616268
25.4632208875592
23.7326192818085
6.13877088496196
7.92251342875576
28.6100598335301
32.2168201605682
10.6036324798318
11.070947347483
35.1011485498852
35.4541008677491
10.3161707153174
11.8060993939623
44.9230684840978
43.2623612549955
44.1083460655412
9.26736978833146
10.1099403046097
12.4850524860103
12.5565113958668
56.5998418933405
51.0608233705725
54.2118677277598
13.5924029878817
14.7613169194293
60.5138251253077
60.7828021852189
74.1736537113176
17.5480870529481
15.846813536268
12.7067667816162
12.5900086089736
11.613416669089
12.2239975239376
5.09517251895135
4.48825333708335
4.49801209693507
5.08712614906129
2.16508167661857
2.06889566773664
2.12817127213218
2.21940280570402
2.0732778666976
2.02606467038664
1.38055374191099
1.41338711715586
1.46328203196435
1.43034611614165
1.49297849563301
1.52838672782534
1.47169201604737
1.43414773229724
1.299559460903
1.31994217405595
1.31650952018014
1.30119044594517
1.24622388508104
1.26356293506868
1.25777247208372
1.23902258785044
1.29466869944643
1.317923482763
1.30540420724921
1.28920131104156
1.34538395184299
1.37425142506525
1.45146933380941
1.40964977116491
1.44205719828811
1.48127506911209
1.52681171564862
1.48901927567683
1.4545970452315
1.48584209313891
1.48173655920579
1.44778187373927
1.42389026170239
1.45847187735445
1.50022720008302
1.46580259974205
1.44703986490371
1.48325781363133
1.46222803066858
1.42786733968236
1.41720668745135
1.45189106483215
1.48407056724162
1.44837705678012
1.52437456998729
1.57652138799439
1.5869139943154
1.534185677354
1.70021173555375
1.78856769789811
1.81571908929334
1.73527818947675
2.03007019264897
2.21371913825387
2.30291124395814
2.1117437895861
2.36032155394547
2.49106500348365
2.57983807655519
2.59511408015159
2.6421873227839
2.61786088291443
4.52679295379555
4.73718036392237
4.69264812196151
4.46150368294692
4.7530695948045
4.99944482770323
4.92255671760169
4.64775547314594
5.93756884337351
5.90055595833262
5.96782840769844
6.00709448083947
8.69303310554147
8.74244358333707
8.88611161724503
8.85650523590938
14.7774676063924
15.4461894726134
15.511330492705
14.837968450873
21.9477849029235
111.94107143582
130.486568288934
26.4090994445208
26.6375295783168
22.2605958200936
118.412072029395
138.630247033427
147.902159472396
26.9141406082674
22.6369680817091
125.496319626914
121.542873448788
20.8870071325803
20.6614092037618
114.686296853364
108.156835904138
20.5009107322053
21.9734570186121
118.531346650829
117.913069495002
20.9480172122026
20.8453508137435
110.867493269613
107.610545126675
26.2271140096847
25.1161309914951
94.1971148645948
92.1659603165201
26.5681729682726
22.3516332359384
71.4899858522487
65.9463474916811
20.6985997929943
17.507960912716
58.3878966169678
56.475607205847
13.4988344837945
11.4912690359707
48.9859178700667
7.72959260086556
5.3579691525333
5.74320220137098
3.1915575117954
3.06467771350913
3.28936183590702
2.03577956012735
2.66977619537597
3.62385103254574
6.39776247395454
24.7261682947071
26.7266019329295
7.49560239890883
7.9638889975993
31.8102253224729
41.279777774595
11.6949211688131
9.72516905347225
36.9594200435856
33.219909730393
9.78145019323176
9.04673653458148
30.4637162892588
36.0804459017783
9.10920048419072
9.56441977514493
46.7338305181889
44.5078057764417
9.34225582276379
9.37841097746959
43.0989369173745
42.4700421979932
9.28624155408118
9.20813168413168
42.6340560079915
36.1195360767576
6.78622578199035
8.26693234276146
40.1714030045998
40.1306581741274
8.23068881826959
8.23689276229244
36.7836545712412
40.0307596001555
8.51244810416127
8.22836355764487
31.2172728688654
29.041345514873
8.44051924096528
9.49101558846269
33.3466492134784
41.45101305649
13.9256782668904
14.6916215148589
46.0156565885507
54.4718873744931
13.804067998427
15.9722425301064
60.402065090336
66.5086153371486
16.2572855444737
16.1607019550461
67.7201895772672
61.7090885510442
14.6405526305164
15.6245769877011
16.9684857105362
81.769607526646
63.9336338069591
61.760183668535
78.5244852477208
16.7191854832876
15.5060974699956
11.0960548846197
10.9856309296931
4.76751469282446
5.3586943037089
5.14574806228699
4.64201017668557
2.1989234134932
2.2877677938858
2.12185479273312
2.07788832036674
2.13875429512522
2.18220807351157
2.25735206776274
2.21124310483812
1.56959844058494
1.61012732944105
1.54617845199731
1.50491542064117
1.36804876278964
1.39361176500582
1.38767735986463
1.36741072781129
1.30733642360218
1.32909424977668
1.41226685031749
1.3767548119197
1.35581912692283
1.39180871570475
1.4846302958967
1.43323825124233
1.476726851307
1.52684176907126
1.59481165454636
1.55304729982541
1.51328997100499
1.54258489166308
1.61595452466037
1.58518666309216
1.55040932923535
1.59319805062314
1.53447474990112
1.503857337878
1.49230024065533
1.52887189831724
1.57818174688988
1.53854965850574
1.50558245860455
1.54181164180288
1.52014083886568
1.48201928114681
1.46033415608892
1.49694760571541
1.52935207763637
1.49009164529229
1.47735066038043
1.51531551746987
1.60295495811272
1.54932528938139
1.56265179465591
1.61862400865116
1.81079079513054
1.72096826726199
1.76346113950752
1.8462213750668
2.22939800506839
2.04865074807301
2.14777229574914
2.33943408256666
2.53424494152914
2.39665645456708
2.43413597468994
2.5776238692545
2.65550193298627
2.68431959213403
2.72969629420348
2.69548347551762
2.73520448063008
2.77264746766763
2.82077205117561
2.7780493881861
4.87383943939953
5.15897359722078
5.07822753396868
4.76649537951814
4.98053101704185
5.2903555567716
5.20940406522075
4.87540544466795
6.10065806193779
6.03823473032783
6.09648381550134
6.20831845199244
9.0498978037005
9.05783421998501
9.2482443546352
9.27514904245901
14.9440318985803
15.6281808314749
15.7925564409809
15.1000315565995
15.3045630751652
15.9975082998409
27.2408793288608
158.479181399572
133.239850778406
23.0735452144679
21.1549532299056
128.687547489524
145.142058961469
22.5113480590874
21.6274657825504
141.47060684752
132.903475216761
21.2885916840378
21.0935123643873
125.084299996721
120.630964059085
25.2206235501693
25.676164010016
113.865748470969
138.64832375921
30.7173447422875
31.7376293185668
130.252864512514
132.097907519813
32.1488139206898
32.4402793345921
119.015682753027
133.145993740667
31.5543601048638
28.4243909929101
25.0381949124971
27.0350794975963
109.677023692888
104.829402059282
26.9143342656811
26.3692104740935
97.5042479611047
94.2130712617853
24.8840876985924
24.4682794907872
97.2674309772511
101.734238658958
24.6275804584061
17.9280576370504
71.4932175432789
62.3392907598219
13.828224630847
9.46883648977428
50.5788360347102
47.8846362680515
9.02647985170238
8.35626116809586
43.4664391322252
51.7044456685705
10.7754434527465
10.7213111127997
52.9207014077296
50.7358794774905
11.495920746585
11.7756202524401
52.6330140187914
55.1921346695261
11.9426092720554
11.0750263351122
47.3777595862621
56.0820913913555
16.3737929730676
13.9315728671287
48.2808072441552
39.0831143079391
11.6288033223483
8.5120817681386
32.0267643794029
29.0227673245478
7.82366210786139
7.03073807871824
27.6797653025076
29.2241862841117
7.85438537030595
8.20163755586829
34.259723023026
46.4226911569023
11.950086996632
18.1352558706074
66.2990300464542
54.2764618752
15.8712157898114
12.7270006878664
47.1358078010883
41.2192652734427
11.7247444580957
11.517471708288
44.1620574048431
51.6597584189934
10.1441641594716
9.79345948368424
49.0304765681605
48.9181032706935
10.0021117105395
8.02669757176888
39.8142791621231
44.5484506229012
9.7739173868429
9.12373139606728
42.6485580185488
41.0667976198615
8.66323976273765
8.39261518518205
40.1708058313816
40.895280565477
8.68082243630373
8.48171194499813
32.7574447723853
32.0178552732624
8.73349009046132
9.9903854369139
38.1410349974733
52.3255594547037
14.0791830661555
15.437594486397
66.9642206525912
69.0902862627551
16.2374296467435
14.4740214110851
61.2366642229822
61.6792539620038
14.4948922299391
15.594288114541
16.7212832007032
77.8281773703554
61.109328194111
61.6417616723988
78.8238652344372
17.0194132391776
15.9690856667912
11.4428392444021
11.165801101866
5.18037032188377
5.78163737623837
5.25043638558671
4.79212353785762
2.39629692182312
2.48505402532482
2.62746272270157
2.51812802032376
2.2922397152339
2.35894544517737
1.71644738029203
1.65512933196893
1.5833117207996
1.64186316412449
1.49046565888272
1.44726890249144
1.44492604954143
1.48133226651412
1.61588031100705
1.55479786778249
1.47282901437035
1.52773666643284
1.5746698920464
1.53639225408097
1.64388925976205
1.66697025642643
1.59612921754526
1.5751660242975
1.69284430115714
1.71549604412469
1.70771269287099
1.65426153439935
1.79511336549198
1.85764940042574
1.71486909742224
1.68190933057453
1.62602336189427
1.67236020679481
1.5914152080503
1.56002930240451
1.63047454437527
1.66284489598924
1.63359165151105
1.59084411638616
1.54629202936428
1.58459509415643
1.55692870441312
1.51552415962712
1.5502103649637
1.59565741731995
1.56071389958115
1.51900626817133
1.50460941161459
1.54505656047472
1.62732358202564
1.5725267363174
1.58999736718052
1.64934714936643
1.83268838130314
1.74134013092696
1.79098424543762
1.87671908154591
2.24640796174964
2.06784678149744
2.18408094549396
2.37611090869492
2.41200691221377
2.21982522190117
2.47309787646671
2.62349763101047
2.66828893408367
2.51206893157858
2.551783162114
2.71224563008496
2.75320338568849
2.59018379287346
2.86741111307198
2.81989196250794
2.86422212524964
2.91902603388811
2.96818816060951
2.90613832148788
2.94948718553598
3.02102669304762
5.40457675544107
5.08199660088778
4.97408342538999
5.32154220313777
5.4982571166684
5.17301310245932
5.05590478596467
5.41105418124312
6.14645595654243
6.32325678422244
6.43655165000684
6.1868929270196
9.4464695084929
9.52606382591088
9.79134578752579
9.63714588945833
9.79981197560258
10.0524339853663
15.5497864593695
16.2335513475037
27.629160820426
170.542319316068
141.808055354578
23.5546886281581
21.4681168257838
136.271248758117
155.342459589701
22.7809965283822
22.1629925951654
150.720975511756
149.759100133278
26.8696280034034
25.5002830971076
137.662409814908
128.470960677721
25.1530200575009
30.9218738006851
157.181018941446
143.188880882908
31.6858323023515
31.5777194332156
134.279124734704
102.908257866932
27.2789734597474
27.0616533293162
102.884756219533
96.1272254502345
26.0512774604696
26.2955499161555
104.348597042261
101.978766182773
24.964892837503
24.5979513148251
107.518054614062
103.63184195219
24.4499411771982
22.2294634156483
99.3222443402589
99.2834870015697
22.3326645166627
18.6055982367663
74.5645377478644
66.3450581229483
14.5111062084813
10.058425956973
53.275632712051
47.1283066709746
9.07888667608346
8.66084558750322
44.9647511338129
6.22430939816358
9.53527502628845
9.50797098424598
11.1332014999146
55.3143386610497
58.8313731121312
12.1274772151028
17.4279855132386
68.3526381643599
63.7947827190623
15.9422421926201
25.38353455782
88.3716279875004
78.1775888391957
23.4840409384304
18.0590697250702
58.5922143135598
45.8430202940419
14.393660648739
10.0660557363646
35.4641123467413
30.5243846582999
7.92580364261342
7.2607821444607
29.1273834477314
30.423519330543
7.98027792354455
8.41971035660551
35.6302498051842
48.7878351447492
12.0582275322568
18.742440731688
71.8733419400195
91.4071261882245
24.4719092161962
25.8408912750154
119.7707432901
114.049702740783
25.2136259089971
25.485961389322
110.614852061269
101.287109254572
25.063086594103
22.8893141403391
81.8854425438198
59.671899561242
14.4174689037111
15.275641129977
60.5945855917287
52.9273939791258
13.5871786246077
15.3373414782292
57.2546857479826
48.3253924252252
11.4683313362568
11.8139047458863
48.8775817247407
38.5750317370239
13.4688060380575
14.5457701106185
37.2961227136534
44.4280239964155
17.2173865501162
22.1118272663893
64.6662465782309
84.2220329990532
22.1470529270447
24.8516512481731
91.1038952049313
83.3807259794071
24.3754119456405
29.7127519020475
33.5955026320161
133.27247187043
92.1454412220912
88.778321360442
126.622500881588
29.9699262619099
26.9133875307399
18.0171711163346
17.9103636406929
13.5957034596294
13.1405101037494
8.72173282599157
8.47877303477522
7.83066003866476
8.31054598567556
6.98585762337462
6.55859843322138
5.33503777241228
5.67552138396947
3.92631843728085
3.79723529932939
3.66404212925549
3.77195371170054
3.5427136418154
3.44398584034394
3.21786559219391
3.30522141613399
3.08010034274129
2.97625795436377
3.04375702662533
3.12577248327459
3.25613181295092
3.14595259537244
3.23054383885156
3.33365448515494
3.46875177295934
3.31651234516416
3.34705445227941
3.46932081681949
3.53698751194181
3.3628431011832
3.2777313754656
3.4081404322611
3.12096588869795
2.99488902853217
2.82853316234937
2.94409358850787
2.52083639314441
2.47248200453555
2.26345961474973
2.35455328981824
2.04650034938382
2.00276504671708
1.85782988394673
1.91199993057417
1.75732080037274
1.72317768827554
1.65615364188804
1.70151483563328
1.63351509571133