/*--------------------------------*- C++ -*----------------------------------*\
| =========                 |                                                 |
| \\      /  F ield         | OpenFOAM: The Open Source CFD Toolbox           |
|  \\    /   O peration     | Version:  2312                                  |
|   \\  /    A nd           | Website:  www.openfoam.com                      |
|    \\/     M anipulation  |                                                 |
\*---------------------------------------------------------------------------*/
FoamFile
{
    version     2.0;
    format      ascii;
    arch        "LSB;label=32;scalar=64";
    class       volScalarField;
    location    "1800";
    object      k;
}
// * * * * * * * * * * * * * * * * * * * * * * * * * * * * * * * * * * * * * //

dimensions      [0 2 -2 0 0 0 0];

internalField   nonuniform List<scalar> 
162506
(
0.0150874386640236
0.0150914157802485
0.0162984836771381
0.0164061580908444
0.016731796347482
0.016572846137935
0.0151721383839612
0.0151278935837554
0.0164311374254346
0.015810685052162
0.0153535826307866
0.0150314499871163
0.0150685530884569
0.0150490513146738
0.0150132786371214
0.0150111126730099
0.0153245830297019
0.0157351453092987
0.0150449000044422
0.0150920088747068
0.0150561205570425
0.0153412033567593
0.0157499525844298
0.0158004576489585
0.0153758461643416
0.0153291032415991
0.0158118069467155
0.0150103033044817
0.0157516778205899
0.0153092747732699
0.0150027630572427
0.0150029866163049
0.015013293791166
0.0150007578428632
0.0149985333297931
0.014998073148358
0.0153027721168035
0.0157509028124836
0.0150006772793504
0.0150757607990279
0.0162854801287006
0.0162868555733662
0.0150717898498021
0.0151160576267827
0.0169421922350422
0.016951205895195
0.015118730326226
0.0152570877879584
0.0173879873614889
0.0177210765952014
0.0171052311942855
0.0178912161086359
0.0188732840239132
0.0183098451862671
0.0153536647562685
0.0153030187710922
0.0179965991098977
0.0171592103726106
0.0152291549871788
0.0153346199359037
0.0172187166529058
0.0164794369255068
0.0151769324410247
0.0150524437545211
0.0150163649357261
0.0153484057709861
0.0158681894249024
0.0158296423888436
0.0153008631820732
0.0150080532639904
0.0150285259957413
0.0150161667818364
0.01500514797593
0.015010621706233
0.0150288337560275
0.0150320617984133
0.0150755654182731
0.0150740616809172
0.0151496127753048
0.0164186906695488
0.0164364996359206
0.0150885531761589
0.0150133190891345
0.0150029101557612
0.0152981225745362
0.0158259487986376
0.0159353880572291
0.0153536403070753
0.0150018580752026
0.0150105537517894
0.0150023453202792
0.0150017030874598
0.0150002023460998
0.0150016853518546
0.0150056209163352
0.0150010579421147
0.0149989934456747
0.0149990709990517
0.0149995985126369
0.014999287584864
0.014999033960838
0.0150012857000141
0.0150010924400313
0.0157505481271199
0.0153026016372039
0.0149986578243497
0.0150033829651598
0.0153088191321082
0.0157507506098962
0.0150109390181644
0.0150707151962996
0.0162848842465012
0.0162846432101705
0.0150740098464188
0.0151145710116175
0.0169491028359458
0.0169507424761902
0.0151214099985851
0.015160984726302
0.0177427051328849
0.0177086241616321
0.0151609722507382
0.0151559777125182
0.0176894535519314
0.018515514066664
0.0154778490335198
0.0157733454517629
0.0193271336966089
0.0201357550522205
0.0187404950246685
0.0197544447017076
0.0212819343059623
0.0206036878116584
0.0166404331974104
0.0160703079728247
0.0201731898028539
0.018944748677787
0.0155807458572508
0.0154594938779203
0.0192316969433188
0.018148028766727
0.0153564318659509
0.0153190945312038
0.0180739318632028
0.017154275604196
0.0152749525343969
0.0151438075870105
0.0171857333902343
0.0174783198836933
0.015334880959996
0.0151510232111488
0.016620739569097
0.0166981199189097
0.0151203400103528
0.0150080618566706
0.0150015655185773
0.0153820114968317
0.0159814350096878
0.0159210452458918
0.0153476059708832
0.0149991344425049
0.0150044518794646
0.0149999929770125
0.0149998039863391
0.0149990199297793
0.0149973551338056
0.01499813869555
0.0149993001732586
0.0150004431871551
0.0150013935675109
0.0150060239670852
0.0150015120299018
0.0150035955721805
0.0150140265411927
0.0150497372652079
0.0150141284298678
0.0150119432517401
0.0153238174885317
0.0157333458531754
0.0150455776195192
0.0150882403375185
0.016294872244363
0.016944724505206
0.0151167635759747
0.0151124792283298
0.0169381690928925
0.0177001630958197
0.0151561249455482
0.0151529671674745
0.0177391658198755
0.0186637980368038
0.0153746190285416
0.0153853159164876
0.0186716606406598
0.0185900428485485
0.0154163519328672
0.0160095826610379
0.0197382795470557
0.0195753838957523
0.0160848095578755
0.0162791704499703
0.0199770435338376
0.0209296008193164
0.0172501693750452
0.0174642395528599
0.0213908321431639
0.0215300117099267
0.0172733234889918
0.0165755951790942
0.0205513322351858
0.0214115068706732
0.0167621295151594
0.0173598660281948
0.0228682619313722
0.0248019919422715
0.0179858631158647
0.0186080258647801
0.0246889106418294
0.0251687604594994
0.0290171276666374
0.0266328720869569
0.0192640176941494
0.0190594859056076
0.0264465266460356
0.025819816965452
0.0188989060458398
0.0186104091477079
0.0233789631525328
0.0263198537285472
0.025122373045418
0.0234563860849703
0.0178163721314948
0.0218783054366973
0.0241517698596041
0.0228177334972726
0.0208574317307284
0.0173613782457209
0.0224802585534814
0.0223282769953666
0.0170299004814472
0.01624157667925
0.022060406579301
0.0205338504703507
0.0157262018783609
0.0154751384167445
0.0204120760440554
0.0191503080045055
0.0153652803651911
0.0152162317272646
0.019147901948385
0.0180896376244812
0.0151791034437186
0.015400131051284
0.018588968526551
0.0186843053857526
0.0154149050570826
0.0153323191043206
0.0175659463406764
0.0173564387808038
0.0151140825856842
0.015045916100475
0.0165890935402007
0.0165844088322519
0.0150512511245017
0.0150065870920361
0.0159179873818913
0.0153470335754822
0.015000094115485
0.0150001581338645
0.0150015709417345
0.0150065627176051
0.015001010940165
0.0150022384493237
0.0150047766981137
0.0159757599536178
0.015380453601776
0.0153517583480442
0.0150004189916796
0.0150096508806181
0.0159306627886624
0.0166115378679223
0.015152709334938
0.0150890386450029
0.0164278973843545
0.0164136157257569
0.0151510023180968
0.0150280518888185
0.0150086081420852
0.0152998121343588
0.0158276028305019
0.0158213281005944
0.0152968923432899
0.015003370152369
0.0150136356809608
0.0158641267819635
0.0150517623393583
0.0150157874015849
0.0153471398186803
0.0153527039831023
0.015030924655141
0.0150675200275923
0.0157898277571187
0.0164049934008041
0.0151417079147782
0.0152427102266506
0.0164323694558247
0.0166318913405733
0.0164490099870255
0.0157543625645513
0.0153310145067196
0.0150325459241729
0.0150695412662004
0.0157621257237523
0.0153310696287037
0.0153751731156189
0.0157680018456492
0.0172587871404399
0.0176110771223882
0.0171293887288301
0.0153430312062613
0.0152482999174589
0.0171287194761934
0.0179579919536923
0.0153269011679308
0.0154393891967826
0.0179093246348021
0.0187463978068816
0.0181667086286059
0.019206795986307
0.0199514312838892
0.0187478894305716
0.0159052081615182
0.0154942768128311
0.018496521843002
0.0185731597604795
0.0154064739159192
0.0159948598739972
0.0196867514564869
0.0198426180271536
0.0159389334345442
0.0159496635593401
0.0198637974891388
0.02177355634278
0.0168019361934126
0.0174225382539133
0.0232504037832569
0.0255985315504607
0.0178684242547555
0.0177952907570249
0.0249949322593249
0.0277450308147406
0.0192018813698233
0.0193826569800725
0.027200352797261
0.0265267876155435
0.0195651953832902
0.0193424687338849
0.0284009599578837
0.032505162019059
0.0274062295947447
0.0297490963326984
0.0357775399993239
0.0303551143192639
0.0198057189445498
0.0193353605044637
0.0298748061299998
0.0279418749905173
0.0192184547960791
0.0190447908818583
0.0267173602311858
0.0253637029767731
0.0185727169763971
0.0180212381806675
0.0236290995186316
0.0232633758982819
0.0173841376463158
0.0172257206654226
0.0244849092229274
0.0239530153555441
0.0168207790472341
0.0158353304579068
0.0219187533964532
0.0218219151618445
0.0155143670478237
0.0152821994036365
0.0203790057086328
0.0215500765231365
0.0155261089425106
0.015462742091095
0.019933861036586
0.0200328402809462
0.0154888622579596
0.0152221184796314
0.0193160315128197
0.018261020500516
0.0151697910984558
0.0151752883883704
0.0182537666544953
0.0173510503285125
0.0151195106333293
0.0153352782878271
0.0175537186470292
0.0166888421442653
0.0151252773877023
0.0150475513321935
0.0150072245592242
0.0150113888397517
0.015005195494209
0.0150040791165737
0.0150039366450534
0.0150020947667749
0.0150443750904815
0.0150230546556871
0.01505449564876
0.0153358158565711
0.0174643461497218
0.0171728950202077
0.0151411023571187
0.0152759602590194
0.0171447701481091
0.0172068346928233
0.0153372606128173
0.0153622023151239
0.0181292461022167
0.0192001063785612
0.0154765932904363
0.0156204667177381
0.0189001040052286
0.0201119936255418
0.0161503826873675
0.0167160250228082
0.0197598032832049
0.0210513155617572
0.0204362266763307
0.0222383582613703
0.0225475916988656
0.0208759068979695
0.0174712406022464
0.0173139252460706
0.0208576396224982
0.0199129076741305
0.0162678478346381
0.0165699770113572
0.0204830412461751
0.0213622478234788
0.0173856520177353
0.0175366463836607
0.0212831163869997
0.0218425316897447
0.0178843778201614
0.0233642095505908
0.0238260652498222
0.0259616767001365
0.0233869110944537
0.0188736327857129
0.0249825463036439
0.0259601247875637
0.0193759947262587
0.0197053145662073
0.0266003479401052
0.0262509042550435
0.0277918545220209
0.0250352159566533
0.0199079394141981
0.0191455281472893
0.0244450466199712
0.024651375951176
0.0184991254869138
0.0180750214454883
0.0248511336314239
0.0255005174005628
0.0179944961721653
0.0178875584585497
0.0256343950453877
0.0257126609275249
0.0178799345861399
0.0194856191385056
0.028797389648446
0.02857179607074
0.0194433170583744
0.020761357845952
0.0306559144974122
0.0297620914784594
0.0204691686867045
0.0203393782459964
0.0296188609797951
0.0288375463835981
0.0203688242938843
0.0199483416783696
0.0284544804603566
0.0294752013209027
0.0204637330849429
0.0211951466169021
0.0333766246191074
0.0325850115200101
0.0397635000114282
0.0323808327898478
0.0201646082384102
0.0194865320332182
0.0318906588604476
0.0312187342731738
0.0192937811917759
0.0189951807210079
0.029460578704512
0.0273259918717108
0.0188778467116048
0.0179839761340895
0.0261949563542482
0.0248832838239786
0.0176793461768312
0.0168146508983244
0.0160755726383636
0.0154545891808222
0.0155063825560161
0.0157025551357286
0.0164471918380537
0.0240438141657582
0.0256184481899677
0.0165368504303324
0.0164867163141469
0.0252938842551226
0.0248925525559178
0.0166458371063345
0.0166026995972416
0.0246070380751432
0.0252966416904349
0.0175138521224509
0.0174567049483506
0.0255175309237441
0.0259256204718212
0.0174758038786286
0.0180518973128788
0.026480488696965
0.0260117218153634
0.0181220582930131
0.017317308744658
0.0246177353520986
0.0167210977012512
0.0185780356401409
0.0276980571292225
0.0295081459481474
0.0195213274029697
0.019033877057148
0.0285417643674235
0.0273943977105955
0.0177885553213251
0.0167503427630044
0.0282873507504854
0.0307792908801547
0.0163270309254149
0.0162198578135107
0.0281166614278294
0.0256235060275141
0.0160800739517022
0.0156151403060962
0.023464796425311
0.0235577986075635
0.015643299376574
0.0155555741981173
0.0216481036495138
0.0205351938877227
0.0152732465513116
0.015278498013108
0.0205195926453806
0.0193056321980759
0.0152277636024766
0.0154878222628973
0.0199975278733519
0.0186644789573695
0.0154168616635961
0.0153956822140297
0.0185668856083102
0.0180698094290954
0.0151683007678316
0.0153179683194078
0.018056457322199
0.0191197192937427
0.0153593165771666
0.0154570093802514
0.0203616606303964
0.020482388061857
0.0158014711478237
0.0163480817315633
0.0220342977746265
0.0222552224555644
0.0171528387184618
0.0181997017928279
0.0236994450957462
0.0251536320519937
0.0190977368912342
0.0196243943241105
0.0275205951534033
0.028275380574545
0.0199961294979305
0.0198438771541122
0.0271623676750064
0.0282943924052759
0.0208003294995778
0.0208306658836022
0.0289294451744912
0.0291535286160611
0.0202658766715271
0.0207800384174035
0.0308082704961782
0.0320603106010614
0.0371265123017157
0.0323587678212348
0.0225350168268965
0.0228269940150633
0.0320680232274187
0.0307445723870752
0.0223627281761714
0.0213941969958295
0.0291861774400849
0.0332556567983069
0.029650558960475
0.0282649841922306
0.0308631101593593
0.0274103179327453
0.0213041810971991
0.0208224353070628
0.0272706892614654
0.0273265292262765
0.0200894584040309
0.0195530200510705
0.0277482836244423
0.0285466728705485
0.0195773974676174
0.019499447207504
0.0287408993994965
0.0309652477882591
0.0209340515475227
0.0209630338452202
0.031038103441314
0.0309646914949579
0.020858150447265
0.0208558617095807
0.0307304796846335
0.0339661035624582
0.0228346823732189
0.0226949953251837
0.0338458137164176
0.0328953912552061
0.0223019864300683
0.0220339637746067
0.0325181425651195
0.031346683533661
0.0214773571163066
0.020590669599092
0.0304853644814279
0.0325567693185222
0.0211746464043212
0.02141940240626
0.0352181707710337
0.0380343930852701
0.0216599993358503
0.0215240256782175
0.03832824633444
0.0356884853760465
0.0438693323606795
0.0344407242268849
0.0204832417660423
0.019644297112608
0.0340503161196172
0.0338506727009036
0.0194458848422534
0.0190917895918034
0.0317740213710914
0.0301325631646806
0.0184917721812015
0.0182069068361532
0.0281046654403363
0.0171912977424107
0.0164979720488412
0.0162089277223735
0.0162997614989943
0.0157435424288257
0.0156687468792911
0.0156028056800259
0.0155606155728842
0.0153306500212371
0.0152787779849837
0.0155796863046548
0.0250895461016915
0.0234639275920245
0.0154394143452187
0.0153375647934289
0.0219273918027363
0.021903057462751
0.0153351313344784
0.0156239128578412
0.0234459266429808
0.0215816652722108
0.0155561244860128
0.0154936234174451
0.0214793754724799
0.0203315641594999
0.0152521173576282
0.0155951991610543
0.0217356136986976
0.0218274412189613
0.0159746513508892
0.0170584658779626
0.0240196425070142
0.0245795861922663
0.0176644027562351
0.0174956874509919
0.0232196069276214
0.0250053815918835
0.0179217479104423
0.0187672244654143
0.0257188381407525
0.0283887304267213
0.0189357118451036
0.0200882117610912
0.0311463065752059
0.0320967649952371
0.0206815111360897
0.0228926991257866
0.0349041355294016
0.039995464189749
0.033474331874941
0.0353287873570288
0.0444296369355392
0.0387623301573033
0.0232287361036261
0.0240055049366791
0.038773536354752
0.0359852306402286
0.0247585142968918
0.024531956565301
0.0357361845293004
0.0371854082808154
0.0247774242039624
0.0255308149361924
0.0378643321223471
0.0380495712182179
0.0252075969204753
0.0254513283213013
0.0384534942827098
0.0400766005918451
0.0257850861180044
0.0257931697281701
0.0403108177632231
0.0409346474911651
0.0258414054304376
0.0258261849656875
0.0408650932564782
0.0406242107718312
0.0258236212150203
0.0256617336927319
0.0402718002631374
0.0395157386245989
0.0254688027494149
0.0251903019487157
0.0391902878680901
0.0385849485936077
0.0249065812987978
0.0237746160476027
0.0375415924515152
0.0347205030675508
0.0223600587783345
0.0227075831619155
0.0390262817943398
0.0439802177750749
0.0230634944258307
0.023491806910888
0.050628471882448
0.0411904591057955
0.0218393114870217
0.0221176546600832
0.0451522302082558
0.0443647124978027
0.0218387112401149
0.020796766691709
0.0367275913452573
0.0487833126855408
0.0393408990674364
0.0431157305672269
0.0537911440518615
0.0395168197690086
0.0211012899147558
0.0200979118587999
0.0390742518465915
0.0364312423817238
0.0197920873918228
0.0196485190246615
0.0367491852855511
0.0343388254237338
0.0192155244987822
0.0186244912730968
0.0324404765037204
0.0317554359657785
0.0192400289092958
0.0190258552666063
0.0294917859904542
0.0171753279328106
0.0174011726502429
0.0168661399467148
0.0157772666837832
0.0158367017618954
0.0156464309418714
0.0160435548351578
0.0309696649445055
0.0282545456199884
0.0158911241533528
0.0157692093181533
0.025785787973345
0.0153871371782251
0.0151976722031501
0.0151919782220901
0.0154381870306367
0.0233956580656891
0.0255820102932729
0.015714552644377
0.0156973777798276
0.0255071338640815
0.0234123310993096
0.0159671749895624
0.0164560655552142
0.0259273146454067
0.0251553150762732
0.0172712601416325
0.0178681897584422
0.0256114722905778
0.0261988644242258
0.0185439477340958
0.018111461260711
0.0262497774692404
0.0269924263325167
0.0182038304276169
0.0184364800751628
0.0291534928818555
0.0310287993256975
0.0191844928176266
0.0204274496699666
0.0348790428654413
0.0332486115173349
0.0208237862573672
0.0209601050823483
0.0354522873817735
0.0375529039912851
0.0484510560041791
0.0426669201787452
0.0235214049732979
0.0243902086536061
0.0436384817350917
0.0412221185012742
0.025972518281053
0.0266328006687711
0.0417059991190064
0.0449845338058337
0.026728747157863
0.0267400743339845
0.0462871236031857
0.0466984553048215
0.026870900938401
0.0273784769461973
0.0487454122074333
0.0493052196830683
0.0271608413123935
0.0274759983729666
0.050640732414397
0.0511927508711848
0.027618760604499
0.028011387022969
0.0527527567372273
0.054538889611756
0.0281930884071539
0.028239942171323
0.0552537275650078
0.0553603415451523
0.0280886765698627
0.0283720038416929
0.0559038299237501
0.0570412112881726
0.0283716774746374
0.0282848231471759
0.0570884511685825
0.0570227228501627
0.0283431552443077
0.0283497783644208
0.0567073844416629
0.0562824195211784
0.0284726696184393
0.0281884773427237
0.0554867398868617
0.0553155384340998
0.0282087802253814
0.0280647549532529
0.0542395145614974
0.0532823945752099
0.0280102130061208
0.0276489892960731
0.0518304976585793
0.0512973652551069
0.027472536876901
0.0271010741870435
0.0499673362919686
0.0491089357121635
0.0269051395222456
0.0262890601170172
0.0473284739321518
0.0471911761560409
0.0260927130674278
0.0259773010598327
0.0417885586825635
0.0432810879104123
0.026593916377302
0.0267561825604799
0.0436440950227077
0.0442592880075156
0.0271024305103101
0.0271943939927919
0.0442701957247335
0.0450866708916848
0.0275602852895003
0.0275832397126113
0.045581007380794
0.0462495009322243
0.0277774201980601
0.0277217876837747
0.0462783710938973
0.0467560563320078
0.027959922549536
0.0278574910671049
0.0469114364925225
0.0471650044736137
0.0278745909128356
0.0278420781919593
0.0471555337322264
0.0470943020369958
0.0278795538628053
0.0278440061074836
0.0463614832578194
0.0460515725874412
0.0276535716010079
0.0278133683852333
0.0460378101019952
0.0455253041933321
0.0277086469655462
0.0274943936815818
0.0440537413559423
0.0431859071301284
0.0271229908001251
0.0270599248269027
0.0430087297101415
0.0423874820245748
0.026762762815051
0.027087936270152
0.0422939865389305
0.0409177303723587
0.0265847796500221
0.0268266293218802
0.0228672762530087
0.0204830065949521
0.0179137125032611
0.0173705929627369
0.0166260793708175
0.0164761846621279
0.0159052157343419
0.0157882528390422
0.0157547760686032
0.0154965524517827
0.0154185599545792
0.0158623245014
0.0279423412385325
0.0281003433225951
0.0159501466754525
0.0161469728297903
0.0309562976637657
0.0286630326951076
0.0167895520147799
0.0173487246965809
0.0284468656908043
0.0268332006438537
0.0171999664275611
0.0182358172652099
0.027849298216972
0.0285532926509347
0.0189508269645508
0.0184208015390326
0.0283360058070614
0.0305932213197963
0.0186094938610358
0.0186833815455775
0.0313471235109091
0.0338764328989693
0.0195250197699474
0.0210710737513674
0.0392677554980857
0.0374825262247108
0.0214943931845585
0.024665664877942
0.0403052279293787
0.0534840006884733
0.0468961150768577
0.0496488253128594
0.0248361619530846
0.026424072112543
0.0481634652705702
0.0523005405216912
0.0271218008962572
0.0281838687531829
0.0556890963177297
0.0583905625263408
0.0282773506246668
0.0282627618778939
0.0620083909756435
0.0630272152784804
0.0275910806121963
0.0282398860954428
0.0656788648824528
0.0667797981327722
0.028324961717476
0.0288074998639355
0.0692571298925275
0.0707460586466507
0.0292614659981454
0.0297795961079275
0.0729046384498623
0.0744264439753128
0.0300730996001336
0.0302714532809636
0.0747880997092521
0.0750424421082452
0.0303466023975331
0.0308143821735886
0.0760665684476366
0.0779188877277136
0.030779334549533
0.0306955934454463
0.0777742494902704
0.0775267613927869
0.0307917038500877
0.0306967541202706
0.0772709785555673
0.0765506749585557
0.0307627910027463
0.0303539851192262
0.0755657536210156
0.0754303672332066
0.030092020648028
0.0297820107550762
0.0746073350159159
0.0733266009779266
0.0295173585647066
0.0290753976741206
0.071124082461979
0.0690041845831478
0.0286268911258088
0.0280806754945137
0.066496772247433
0.0658137757159619
0.0277172851314729
0.0270050491856434
0.064534322373701
0.0568796988923748
0.0259447042769369
0.0256915566913153
0.0509717622438906
0.045490065884549
0.0242394448594775
0.0247453605651424
0.0548934934360372
0.0675627407543346
0.0252607217218042
0.0258273896376915
0.0868007791715136
0.0591955669508509
0.0239135965499827
0.0243344163691778
0.0713285781427968
0.0490408390766722
0.0222653230601458
0.0225018339763428
0.0548319993578317
0.0521035171137635
0.0220957007374411
0.0223382431278297
0.0618003236825259
0.0483967692608759
0.0598768211615017
0.0429842721768841
0.0233070891067151
0.0218670986012223
0.0419961821002166
0.0433383248310144
0.0215358221714804
0.0203270478160982
0.0412124165337317
0.0373055251229108
0.0193457115539989
0.0187374945038748
0.0350425695214696
0.0342980164903145
0.0193163744673034
0.0197841545254622
0.0350902092175747
0.0321352651711538
0.0197579368137049
0.019169110719195
0.0310841000607667
0.0289889432852676
0.0176046835373475
0.0176599099191682
0.0306993238014976
0.0314617571989649
0.0172930323009802
0.0174456036128406
0.0342374391701107
0.0342407763685888
0.0162300563274023
0.015844082216028
0.0289008420776786
0.0268216329336741
0.0157263180074354
0.0157270180029733
0.0266772107843518
0.0249729152477983
0.0155783839044478
0.0152760944676926
0.0153773543505983
0.0155503828708663
0.0160451795708056
0.0305891305465048
0.0338455470544637
0.0163106047350682
0.0175234142382976
0.034272114867048
0.0317817653993016
0.0174973596279124
0.0174374209387465
0.0315691992889763
0.0298413899309227
0.0173230426733993
0.0185187282102423
0.0329238305507916
0.0303369757703104
0.018389864103978
0.0191054742811421
0.0312269598757176
0.0341817538240138
0.0192160747848627
0.0187782429310857
0.0330333836562415
0.033779802905448
0.0189027291620586
0.019850498843313
0.0371126279191695
0.0442192629093177
0.0214186253496945
0.0217949267508208
0.0424338034060231
0.0475217468559539
0.0675407459062081
0.057446271915694
0.0254098770160182
0.0256042884928321
0.0661068901924302
0.0699324915360982
0.0273249219915131
0.0280487315361825
0.0887293683799622
0.0968860454116479
0.0289165797026824
0.0324252542728375
0.135626096123751
0.136479123127575
0.0326192845468373
0.0339577502837995
0.142801745652423
0.156340527122482
0.0381137392367971
0.0444895270918316
0.156065862623639
0.179351124474658
0.0495174657017443
0.050573633122914
0.187553206191289
0.191725013073537
0.0502950538507277
0.0494420248871632
0.192215654603025
0.192990904090481
0.0495739292706587
0.049200016562794
0.191389953712527
0.190473972355399
0.0496768934504206
0.049271146515277
0.187826775386168
0.187292207898836
0.0497196355684671
0.0493924478759312
0.184610450359099
0.185140066148477
0.0498791528293426
0.0496064161178951
0.18373747096755
0.185736371469127
0.0502137748330899
0.0502839739706252
0.185976149230322
0.188708207483354
0.0508611583964975
0.0505938008401394
0.192761036574411
0.194191813092057
0.0506253447017634
0.0503549269455794
0.192271451245675
0.191414142178282
0.050523864222459
0.0508515163311278
0.191245681031026
0.190312720712266
0.0504389967382374
0.0506497643264084
0.1921250760547
0.190491055005874
0.0502348404550425
0.0507985029474208
0.191638078515708
0.18993986222428
0.050285315594803
0.0504283934974259
0.190645218522618
0.189604008070114
0.0498911628304331
0.0502062972256769
0.191856240932414
0.192167275971175
0.0497417921453523
0.0501274730482279
0.195505862582076
0.196893021153137
0.0496330613488481
0.0502798451517817
0.199821867490622
0.200151439795187
0.0504256313531884
0.0514885439933057
0.200005033683475
0.195350367050943
0.0517246957254243
0.0504499848325187
0.186054307106349
0.160811590595105
0.0452350915257577
0.039324659482869
0.162059948029101
0.152336179332567
0.0354847277361263
0.0323802374251616
0.149917421814312
0.101686879728058
0.0274123706219463
0.0267461848344529
0.084295790217368
0.0732651789524075
0.0264234779506554
0.0260109077024243
0.063593153108471
0.0774824583142307
0.0275449055560749
0.0288589459896429
0.0940070908764168
0.117300774926741
0.03006456736267
0.0331200441805968
0.117335850201461
0.121558839586762
0.037183376564756
0.0438460011638251
0.137943792618711
0.147632525492652
0.0495113233832658
0.050667789622519
0.153191231274556
0.157533025528292
0.050991707553278
0.0495333103515983
0.159767814292482
0.162091858577391
0.0494487827329696
0.0483445423230253
0.160709132396573
0.161526597075866
0.0489925774691385
0.0483274954276059
0.159033622787787
0.160182301522804
0.0489343774874808
0.0484131478890102
0.158167205235489
0.159922680040697
0.0490590314267678
0.0487853858044319
0.159313465620103
0.161177897839302
0.0494051260427633
0.0487475191827835
0.160628554315557
0.161976814707882
0.0492294658087746
0.0489804131425175
0.16057444412652
0.161471018264311
0.0493968427736607
0.0490702956970455
0.161727440210341
0.162036170002574
0.0489394781191708
0.0492036428937605
0.163488192503085
0.162660975869499
0.0491212424038271
0.04939503576401
0.159057712872485
0.157027497723888
0.0487956452749158
0.048783913486916
0.156558568915492
0.154653620971455
0.0481230311487322
0.0485335926832739
0.155916939828492
0.154564130172996
0.0479356261467089
0.0484491038335657
0.15690475522553
0.155978858039805
0.047869517228672
0.0485428165658319
0.1577874072381
0.156718513434547
0.0479296324104361
0.0486742343497761
0.156928302441701
0.154027756521411
0.0485016484065136
0.0497946153838863
0.151824391011987
0.147760617431213
0.0495810674147752
0.0485352404132157
0.142830143447868
0.133876888193336
0.0431246171852708
0.0358541839574814
0.119067867077966
0.111032969706414
0.0414235201242583
0.0457620886587812
0.116530072926577
0.119736476837557
0.0465992350775947
0.0474138435279569
0.122807865810592
0.12411276990295
0.0463415531471922
0.0471642446230815
0.12694988671975
0.126919101794396
0.0461925529741034
0.0469321766661729
0.129331540564282
0.128120168435678
0.0458989446283568
0.0466582657684958
0.130024001296613
0.127970604464421
0.0459096818955907
0.0466446549226455
0.129721986236986
0.128669630810685
0.0460766888551839
0.0467792233010196
0.13027107407514
0.13093839828855
0.0467298631499607
0.0473402793251417
0.132237260706517
0.135368461479029
0.0470572154408751
0.0471861126182412
0.135860096716621
0.1347878212142
0.0469307585936303
0.0470114322852491
0.13471351172483
0.134413456309522
0.0473271866425135
0.0469364783948406
0.133753481756775
0.134781853489406
0.0472209587158357
0.0466786488344309
0.133694503004404
0.133805020443717
0.0474449188128066
0.046703514599275
0.132101842201606
0.132575751942847
0.0471344072957437
0.0463576973726046
0.130505440749582
0.132317930152366
0.0471457297802115
0.0463343090274389
0.130198162534196
0.132128579940801
0.0473994095432217
0.0466049418029783
0.129782303917635
0.131083453705158
0.0479504237793876
0.0472598320830303
0.128475303133781
0.127035938424697
0.0484694697352492
0.047555583833011
0.123767696508288
0.120158901670744
0.0467066693398414
0.0421116398889168
0.11433356933441
0.103562701521796
0.0379684189153462
0.0328109044001183
0.0950296288367495
0.0940228837620791
0.0306268716560234
0.0287935642974038
0.0780375464227801
0.0791218732835976
0.0294092431288748
0.0302375145456459
0.0828761444834151
0.0862215274588895
0.0305674418852609
0.0392998239488829
0.108488495516643
0.112092996410265
0.0389749078426304
0.0386406583348356
0.112897436519862
0.113097286172783
0.0385637534001186
0.0386530920083855
0.113198655841294
0.114415337701989
0.038935951132209
0.0387783714031973
0.115529212342385
0.115555485768402
0.0388688109799948
0.0387059412675684
0.116107755924713
0.116698426163211
0.0388291988232634
0.0389483026313959
0.113429899695557
0.111658390122333
0.0385028411021151
0.0383796323008964
0.111175695942373
0.111323863607061
0.0383071598690571
0.0384452194639585
0.110457201782482
0.108364324485349
0.0385078228338565
0.0387102913253546
0.105087279925618
0.100643697366692
0.0372292262014901
0.0318417726881477
0.093886500122969
0.089682795318556
0.0292865023362479
0.031662399415717
0.111295601650963
0.108080134905137
0.0307112693799037
0.0302758252105911
0.106560662192693
0.0805022187250679
0.0284480037850766
0.0275816048808638
0.0665742501339557
0.0696723009657071
0.0282907613509739
0.0292331190439045
0.0852706502218608
0.0879366836753022
0.0291720503108756
0.0285231559253492
0.0728373140353587
0.0742894496130857
0.0281518956418052
0.0290059376605018
0.0782865928419778
0.0804218020517416
0.0298104724525711
0.0302642532479455
0.0837167453080084
0.0855234864767216
0.0305063555514784
0.0312627625459682
0.0865265982252531
0.0867922955713479
0.0317986560498755
0.0321746043761144
0.0864490468097815
0.0864527927166397
0.032430818364291
0.0329782990688487
0.0876262472822328
0.0896624313568544
0.032971777951467
0.0328913829952078
0.0894182044409872
0.0890911572424295
0.032993668912791
0.0328525573227332
0.0888520323014926
0.0883331214075198
0.0328206945484107
0.0323204204576142
0.0876419110536367
0.0881352461530883
0.0318300904919679
0.0312562068160101
0.0884586493481309
0.0885656093891323
0.0306934168511626
0.0300839308466349
0.0268189430611136
0.02637126275791
0.0258493280093607
0.0252360787062135
0.0233781040502567
0.0232111775515548
0.0228703843190992
0.022555805842506
0.0201137134246122