/*--------------------------------*- C++ -*----------------------------------*\
| =========                 |                                                 |
| \\      /  F ield         | OpenFOAM: The Open Source CFD Toolbox           |
|  \\    /   O peration     | Version:  2312                                  |
|   \\  /    A nd           | Website:  www.openfoam.com                      |
|    \\/     M anipulation  |                                                 |
\*---------------------------------------------------------------------------*/
FoamFile
{
    version     2.0;
    format      ascii;
    arch        "LSB;label=32;scalar=64";
    class       volScalarField;
    location    "1800";
    object      nut;
}
// * * * * * * * * * * * * * * * * * * * * * * * * * * * * * * * * * * * * * //

dimensions      [0 2 -1 0 0 0 0];

internalField   nonuniform List<scalar> 
162506
(
0.00149783632875139
0.00155224514557243
0.000102987195457858
7.88006881498864e-05
3.9261108241642e-05
9.52643136968722e-05
0.000460209922057476
0.000530885760273534
9.31985482901383e-05
6.34524926212647e-05
6.95895355767922e-05
0.000885922174404373
0.000936975497589795
0.00130189083352575
0.00293186395885112
0.0033214322981418
8.95290315180925e-05
9.28913213669002e-05
0.00132942048540842
0.000677628980968652
0.000910844671647445
7.98738234180257e-05
8.51390360058484e-05
3.87256361054284e-05
4.36014548543539e-05
6.12590467263307e-05
5.67983985163361e-05
0.00570455550424737
0.000106154929703306
9.82012778380878e-05
0.00813539212105074
0.00772395316699605
0.00496182612439561
0.0104493966077078
0.015000115890576
0.0149413103834855
0.000100603887150124
0.000109813042034897
0.0106570079967868
0.00846434671295097
0.000113129643231413
0.000110713110210552
0.00510504956283571
0.00458167668072826
0.000110747076015655
0.000110630327058417
0.00324860331522694
0.000815396817482132
8.70925405833713e-05
4.53256615212134e-05
8.51772540324578e-05
9.13393938759528e-05
5.00792681039974e-05
9.6492083114102e-05
0.00116100062158521
0.00128196424496145
0.000101217950148108
9.79041946959808e-05
0.000863644565713798
0.00214229047016816
8.25012222946076e-05
8.17069206553329e-05
0.000955041579617913
0.000819810434964558
0.00228425211015375
8.06790632068439e-05
9.25362885721459e-05
0.000109623657447258
9.78209667662896e-05
0.00434979703716247
0.00283496032797067
0.00418208070956618
0.00593908191212591
0.00352946696343373
0.00247410667859897
0.00192485187919847
0.00167935428452496
0.00333963487207638
0.00298434404288708
0.000102683058300749
0.000113684852928075
0.00530354562361613
0.00507026363258937
0.00827141513894433
0.000102931311062055
0.000112842935798808
9.99222819608078e-05
9.02205681987078e-05
0.0101043212142708
0.00566191215954892
0.0131056472054008
0.00962083625216644
0.0145281900788363
0.0125322784604523
0.00871228053590636
0.0116656019778744
0.0150003107303688
0.0150014787852202
0.0150016947237505
0.0150004408343885
0.0150003382031023
0.0103853803448162
0.0109430292726338
0.000109774195217173
0.000100687827869292
0.0149430597530558
0.0073183755109987
9.82866005242368e-05
0.000107008851008563
0.00569920467626612
0.00570716603393448
0.000110705539657537
0.000113664229966942
0.00931351980907252
0.00803722654925288
0.000111183533009293
0.000110076846765881
0.00787904316942418
0.00485480676621501
0.00011095603994331
0.000110719089694277
0.00380496930426814
0.00334301248695637
0.00011561540587525
0.00011246375680364
0.00230358814006294
0.00112573369944064
9.69995007687245e-05
5.417260998195e-05
9.42752346290769e-05
8.76787624430785e-05
4.83547298883778e-05
7.64219044205238e-05
0.00074416602873
0.000702688104375639
0.00011225635939891
9.67053394209254e-05
0.00131400674565453
0.00219477444679977
9.34320814073405e-05
8.75991459697477e-05
0.00271954518620826
0.00373623453947734
0.000107806331539879
0.000106072690897903
0.00351607203003502
0.00824551225319824
0.000106406202823097
9.81117494223596e-05
0.00480106630803854
0.00691943142183863
0.000104860797198559
0.000102389006594032
0.00802707066590512
0.00709613488457826
0.0110138973678625
8.65932028207743e-05
9.60093040560832e-05
0.000105912795277798
9.42711141910783e-05
0.0149278966092401
0.00818199579560427
0.0150011154584374
0.0150007007738181
0.0150003451643167
0.0150008113968287
0.0150010936966302
0.0150004694286289
0.0134230917438735
0.0141983456871363
0.00869027416370666
0.0104541806706427
0.0070378134541297
0.00489617990481112
0.00126314797858109
0.00278929237958265
0.00312912896358238
9.01386338000421e-05
9.62961718692051e-05
0.0014355070760027
0.0016888069718671
0.000103017436849568
0.000110804887047492
0.00318630686347186
0.00532107850852745
0.000110970016611741
0.000111897755915892
0.00415735535732147
0.00515478811760076
0.000110578993742057
0.000108169521844283
0.00276133869430304
0.0027498421416808
0.00010526919176493
0.000108593770774075
0.00251823566645402
0.00135777061988053
8.98283346057466e-05
9.46401953152432e-05
0.00138297272486041
0.000725808466958685
8.71388952366737e-05
8.64042071132801e-05
0.000720418671964755
0.000611169486906772
8.03582767517714e-05
7.61438687100268e-05
0.000697449819623638
0.000640405099873545
7.77315046916321e-05
7.31174943439768e-05
0.000815172180079799
0.000587991520082395
5.39895704377138e-05
5.21227830507092e-05
0.000509960424318865
0.000618247685225462
6.46508248125953e-05
5.7518630818729e-05
3.32079495798619e-05
6.77603290476468e-05
0.000603937419059913
0.00054050019867674
7.23243492231896e-05
7.24074272171126e-05
0.000492123816762193
0.000480886418838495
6.02972282060132e-05
3.58913394792893e-05
6.82136210171185e-05
7.440441451905e-05
0.000384208434981814
7.05404691981064e-05
3.37057595372859e-05
3.50659966537262e-05
7.43892339746005e-05
0.000503916318308305
8.75687534895446e-05
8.46248629487763e-05
0.000561165633014323
0.000968663587822524
8.65195698106821e-05
8.63010890655112e-05
0.00153038026739296
0.00208024490059392
0.000110607134439558
0.000109301537480231
0.00293815064825044
0.00432354836794604
0.00011164492924906
0.000107226654301904
0.00702485121565496
0.00436782862892657
9.51549669164302e-05
9.55643475421869e-05
0.00442218524386734
0.00496044244596746
9.77712492385707e-05
0.000115480935826273
0.0089425377783701
0.01139814660063
0.000114555224757576
0.000113471400049346
0.0112421204946295
0.00701955597350846
0.000106435171380457
9.44094146900341e-05
0.0149281213446695
0.0147842529666236
0.0132762037996161
0.00587777197522965
0.0116676020493234
0.00941397138563765
0.0122222198459643
9.55658675875799e-05
8.70039211154894e-05
9.01436590697453e-05
0.0146900546534353
0.00536387762623963
9.958489247366e-05
0.000103669453312027
0.00671383413217826
0.00564596223355083
0.000113321596560281
0.000102798928434133
0.00279476815818647
0.00295211958952887
0.00412947577386488
9.71565421207677e-05
0.000110734602482544
0.000113005494981859
0.000102844257252055
0.00766018393739765
0.00509370268058344
9.10195114837938e-05
0.000831309555621638
0.00235092052208936
8.14042452977667e-05
7.01138878452846e-05
0.000880438031840113
0.00101908034563305
6.3779607416846e-05
9.47446901469351e-05
0.000531947281836255
0.000455055968908348
7.79974532734605e-05
4.0056119086562e-05
9.87572448429591e-05
5.99530387663321e-05
6.40394528888778e-05
0.000927465415569228
0.000680687907221519
8.46165459835932e-05
8.28993123358934e-05
4.37521830377193e-05
3.95216641005441e-05
8.37541937186906e-05
4.57510222975929e-05
8.63678281472119e-05
0.000777695863863416
0.000875642713021611
9.75001559266435e-05
0.000103776606422473
0.00128205055054006
0.00117344298111867
9.2537724480393e-05
5.03682305458416e-05
9.53887748944299e-05
9.6839489726535e-05
5.38084161025111e-05
9.33020066299376e-05
0.00115151064888055
0.0023625399609727
0.000113800959943072
0.000106890051810142
0.0026700971600243
0.00135386799807324
9.44158961693851e-05
9.52179063213305e-05
0.00128764798817932
0.00134993630652101
9.68189059601822e-05
6.47530753118248e-05
0.000712898768869727
0.000422570736917204
5.19346079341429e-05
4.2988230514558e-05
0.000288873640923706
0.00037379643591585
4.7575212084167e-05
4.2158989972711e-05
0.000287812060153919
0.000385479570271897
4.75379059086932e-05
5.3699728614315e-05
0.000513693411133645
0.000622731016257826
6.21304280423131e-05
3.35170833002595e-05
5.22847787512495e-05
5.30076428548263e-05
3.82958152879469e-05
6.5438865019156e-05
0.000391790924681978
0.000488298586183112
6.65954169266124e-05
6.290521383183e-05
0.000864205628169997
0.000419054413193632
5.64678141412874e-05
5.08506738916481e-05
0.00038393699307152
0.000313622799504102
5.87221194063516e-05
7.2940961065227e-05
0.000428177478988042
0.000826205345776775
8.04405292574482e-05
0.000110106860925367
0.000836512737874115
0.00131597191740834
8.934931194833e-05
9.54968015765353e-05
0.00156089018644104
0.00262203712915732
0.000113728547568171
9.82756862774822e-05
0.00289657001955917
0.00413469068460007
9.60057766782246e-05
9.65781063738391e-05
0.00413529033621158
0.00489556906625857
0.000115127752727691
0.000114692487886964
0.00793507213256493
0.00792060200619977
0.000115009565789832
0.000114996884535835
0.00894417579222982
0.00493981346009711
9.64761898375181e-05
0.000100261332128616
0.00754467904857712
0.00319907524416525
0.00774601441687054
0.00777271094609322
0.0147374011963784
0.0119514627483319
0.0105098160698359
0.00879817501864269
0.0115705935922539
0.0134231062272367
0.0110915442754354
0.00476621358790078
9.85272770265691e-05
0.000105250363942637
0.00819972057422537
0.00341728998512336
0.000105877824609159
8.30661607687409e-05
0.00205772206020728
0.00290594536623334
8.69787229604157e-05
9.27779874363324e-05
0.00256220702251808
0.00136882766007099
9.76326764068435e-05
0.000109872088337873
0.000730091956847256
0.000824747434845418
8.52830118158879e-05
4.6774663125307e-05
7.71475293517997e-05
8.44142904545011e-05
3.39697019636325e-05
7.08175157483237e-05
0.000540774857370876
0.000635660918016376
8.54502492115674e-05
8.61119158370141e-05
0.000724763413843713
0.000668498701608869
7.986719276067e-05
7.57782599632638e-05
0.000586044340379706
0.00054589451219274
7.63932152920538e-05
6.32753602710761e-05
0.000374515943417511
6.72071347271978e-05
3.27127899834738e-05
3.26999640925205e-05
5.57597160536051e-05
0.000389098399752951
6.1528020355459e-05
6.38164088927967e-05
0.000322603864755016
0.000411051735631997
5.4593453848803e-05
5.25685306437923e-05
2.81035391940793e-05
5.04960964551018e-05
0.000424350533610267
0.000488751757726163
5.72577021341852e-05
5.31276832153097e-05
0.000408942539187066
0.00028327129861424
4.34159975514675e-05
4.00487343312197e-05
0.000259840026717345
0.000245867520711054
3.81390469805914e-05
3.9212065927616e-05
0.00025006211585481
0.0001845486102795
3.64106508401741e-05
3.55942520565644e-05
0.000214101415324478
0.000177639092077443
2.96794070587591e-05
3.73432788362989e-05
0.000190482823015543
0.00025950857855671
3.74531519083908e-05
4.28437016594327e-05
0.000295317072462355
0.000342674432248695
3.77673510687671e-05
4.47125048749073e-05
0.000325363083273878
0.000277100583383661
4.32948684083824e-05
5.52981984174617e-05
4.28142913801821e-05
7.00639902647836e-05
0.000312025498961052
0.000380631112374921
7.36522857819172e-05
6.74560748221165e-05
0.0004486003556018
0.000507072227640905
6.27886369518952e-05
5.64058466438001e-05
0.000444941635897072
0.000432422541665729
7.55681015752697e-05
7.25251491192673e-05
0.000491350536206687
0.000494209717404415
0.000610648259044261
0.000492575914539667
0.00030414536111068
0.000435619107656114
0.000835200144221112
8.29689063457438e-05
6.56608264009339e-05
0.000578016027219663
0.000364017942119663
4.64278095044993e-05
5.11117582434684e-05
0.000461509990164698
0.000754383632857292
6.36772375543481e-05
6.79966005710714e-05
0.000474077994140623
0.000390474049426483
6.02715950544779e-05
5.44090935647723e-05
0.000333837136954163
0.000336771470518679
5.50301306772968e-05
5.30456474294612e-05
0.000499849176925094
0.000950169036250087
7.45107579579359e-05
0.000477642663594136
0.000714454863155942
7.37972893521579e-05
6.30548603191433e-05
0.00058358489770588
0.000505501084083325
6.06669532874775e-05
8.15205081465979e-05
0.000380639896986108
0.000461396441093232
9.74536582171769e-05
0.000107538108142509
0.000651322340092619
0.000663743540513299
9.36275446815102e-05
9.22609221920266e-05
0.000973302099283958
0.00177993727276879
9.22383223126956e-05
9.66503870170425e-05
0.00172911669040507
0.00304795669977577
9.71759597690873e-05
0.000114936685880801
0.00275086513616887
0.00283472078979992
0.000115297259853582
0.00011541890197376
0.00519434124330916
0.00411909532562568
9.69187092054039e-05
9.5762580884322e-05
0.00440127175897099
0.00435110963780564
9.59406569148127e-05
0.000107234714464412
0.00760981374406251
0.0041234627474798
0.000107786832214982
0.000112846204848488
0.00320591611509033
0.00234650314108946
0.000110589165781929
8.33178767485612e-05
0.00187540364914839
0.000897036819152916
9.17585342885072e-05
8.11794018394733e-05
0.000521326804162959
0.000299551401326157
5.48800934785718e-05
5.80981448424206e-05
0.000791817748450513
0.000560306274218211
4.65085275126388e-05
5.6807488478087e-05
0.000797323136700936
0.000585254930154367
5.46502272570955e-05
5.32607703544635e-05
0.000417815993199205
0.000423358167653507
5.47466303435423e-05
5.40183553009419e-05
0.000430762041171358
0.000389098759497301
4.9612621973866e-05
4.82854959404046e-05
2.61103393736866e-05
4.10161974240238e-05
0.000285081108209284
0.000243885850255732
4.2528511147358e-05
4.5518323159834e-05
0.000224923768791913
0.000334817940276026
3.98365266937719e-05
2.46677679457845e-05
4.25899851098624e-05
4.49153043341931e-05
2.66104139704461e-05
4.53846461792879e-05
0.000428814792818968
0.000443188899307468
5.31943847264999e-05
4.36762031324002e-05
0.000306249350633067
0.00021725759731692
3.63225162495971e-05
3.85212685791481e-05
0.000182451878237413
0.000174418724520759
3.72339402837415e-05
3.26479694643156e-05
0.000129654680249159
0.000127828460148344
3.19731727922389e-05
3.07398999431741e-05
0.000153030481590686
0.000147298852049301
3.34194285402617e-05
2.62089528699873e-05
0.000126180334826045
0.000140581813601734
2.41465291791303e-05
2.97843545427788e-05
0.000168628141372274
0.000213467500101304
3.02015531587063e-05
3.56721819323519e-05
0.000242839792314206
0.000263718607194195
4.08020886101457e-05
3.352702695401e-05
0.00024681814339143
0.000212309735662872
3.78774298081084e-05
3.89843422265051e-05
0.000204330318167882
0.00026566204030506
4.76918579517844e-05
5.94054098405387e-05
4.76901430791403e-05
7.56792948144786e-05
0.000303550858928214
0.000370149402177577
7.98160278596953e-05
7.3157175413273e-05
0.000430611254917939
0.000575711034498728
7.03191392394294e-05
8.11330840042658e-05
0.000556515860871958
0.000439067709370143
8.01543796903512e-05
0.000373485811459637
0.000294544594450236
0.000184142364060181
0.000124807145704687
0.000137431881791216
0.000211761927601577
0.0002232423565443
0.000156876451148365
0.000281507002738029
0.000472744018714527
0.000651645457948033
0.000108916658019977
0.000110065547598146
0.000962516621102994
0.00158428249626585
0.00011328402729423
0.000113799775402725
0.00159202028247852
0.00169927322294611
9.76724351551516e-05
9.76042183167632e-05
0.00316678318595231
0.00304033376972862
9.69270766792054e-05
0.000115198482890132
0.00303853270733614
0.0017129936536812
0.000111085755130283
0.000112599901019825
0.00129347872719848
0.000935669488940107
9.50913438221122e-05
8.26750926366462e-05
0.000963482709141778
0.000411979620515754
7.35955580129536e-05
7.27945927077749e-05
0.000425898568505908
0.00040949463547457
4.15972226299012e-05
4.91292629704258e-05
0.000463941089819823
0.000444692874306908
4.79909640104081e-05
5.2297516722502e-05
0.000328534730295766
0.000287791376745018
3.9310979004213e-05
2.58770914452955e-05
4.45184594707385e-05
4.64356694821583e-05
2.96944435802273e-05
4.1229471756673e-05
0.00023390648869341
0.000200641591897394
3.53555699859533e-05
3.02203198681119e-05
0.00022998327578166
0.000189677249442798
2.84204776715771e-05
2.34395480957984e-05
0.000175190070257657
0.000148508533519764
2.27951949937124e-05
1.74630027564181e-05
0.000125606548037415
0.000111409667896628
2.22419299595169e-05
1.82558667163475e-05
0.000107113216514215
0.000108715716995358
2.23641969322157e-05
2.32615630363459e-05
0.000107564270794154
0.000106031465091799
2.29324752655496e-05
2.24547609552446e-05
0.000106066979138012
0.000107865497694706
1.82033083186551e-05
2.24005877015094e-05
0.000117286669725602
0.00013514326377539
1.78592765176035e-05
2.32293994877153e-05
0.000154956824866075
0.000188875477913434
2.53606248823866e-05
3.08880664102604e-05
0.000212686804745832
0.000181795387491004
3.07788090473634e-05
3.29959943478854e-05
0.000175168610779337
0.000160686939643402
3.89526171585834e-05
4.30160554011511e-05
0.000196592372455594
0.000204878197280136
4.9787704827498e-05
6.12801216639201e-05
0.000293377806652733
0.000348758064907509
8.3233960198356e-05
5.38969792512096e-05
6.98271585669318e-05
8.0839745440444e-05
5.87390618202839e-05
9.37360766962753e-05
0.000448589030253044
0.000551270806394547
9.58053545397546e-05
8.75354943508543e-05
0.000419704458818794
0.000454870730708578
8.08902038807976e-05
7.62002988000076e-05
0.000496037916279078
0.000570599801910694
7.96007985795758e-05
7.68593356649875e-05
0.000571108966259787
0.000522145338532991
7.24939226450318e-05
0.000507905289251199
0.000360812301227942
0.000410924177920065
0.000383173857082443
0.000434720750583826
0.000508534159503062
0.000626573583385408
0.00011163058445424
9.79887646862682e-05
0.000760826132777913
0.00105675070142425
9.56879762816777e-05
0.000815964270562602
0.000766724325554732
0.000720652228670507
0.000944310278999906
0.000110144027990739
9.55705845493176e-05
0.000977035370787623
0.000972890263668813
9.27746986514772e-05
8.84694316420726e-05
0.000948868320198159
0.000594963227012952
7.66595593742859e-05
6.59880363163259e-05
0.000713517840494646
0.000639835403827739
5.96316247140807e-05
5.95945339212033e-05
0.00072720452892354
0.00059336593918864
6.46354953897725e-05
6.52934157427838e-05
0.000429483689791636
0.000345242840698729
6.14331019326991e-05
5.35193210560055e-05
0.000332298755742619
0.000304342802910263
5.12134101879602e-05
5.02324360227628e-05
0.000255790767420849
0.000220494675432577
5.84213322300869e-05
4.91036768973756e-05
2.98468544784651e-05
4.30319419659588e-05
0.000216301312903864
0.000181940298031186
3.62347406716264e-05
2.86824766731961e-05
0.000196961719419332
0.000190340661907187
2.44276431026717e-05
2.08139079981234e-05
0.000129803704847429
0.000145648262415211
1.61686937007818e-05
1.79001967639396e-05
0.000132786148243707
9.69529203874601e-05
1.99221081949543e-05
1.60119470098426e-05
9.70784948669293e-05
9.47417817159464e-05
1.92166235826217e-05
1.669853747549e-05
8.55980215171883e-05
8.05989559546312e-05
1.90346892492847e-05
1.69336852253491e-05
8.34663731359405e-05
8.969161775189e-05
2.75976034165584e-05
2.07987889100117e-05
9.74047166185367e-05
8.18357325643564e-05
2.49133500703479e-05
2.61373207155033e-05
8.70648853378429e-05
9.40198571605092e-05
2.98273032341931e-05
2.77801734863122e-05
8.96460225748078e-05
8.61915431767473e-05
2.08827690939254e-05
2.47499797284587e-05
8.13297620353051e-05
9.26731499600022e-05
2.03062877899288e-05
2.29689679185605e-05
8.94524924268911e-05
8.31649711725204e-05
1.65475238712062e-05
1.73057460085957e-05
8.31079098091819e-05
8.755451707258e-05
1.70403762108654e-05
2.06572190193244e-05
0.000102264175368824
0.000109443302837311
1.66177727377282e-05
2.03597771287268e-05
0.000107084508091503
0.000146096017213152
1.86440862036217e-05
1.78385273386242e-05
0.000182773255922314
0.000153786381693223
1.86656606997039e-05
2.08106713166484e-05
9.62844416128386e-05
0.000102154283499816
1.57589751798325e-05
2.25077552820742e-05
0.000104133927997661
8.96709815863046e-05
1.81116494939073e-05
1.78539316893908e-05
8.16949691386559e-05
7.96031570244153e-05
1.67235343130355e-05
1.96854916371398e-05
9.02284693069194e-05
9.60739321899861e-05
2.07972163123417e-05
2.4874077521723e-05
8.48084167900475e-05
7.92137274322485e-05
1.95883247460938e-05
2.51709542724446e-05
9.49559182154777e-05
9.8029115544685e-05
2.59996309029727e-05
2.46551715897101e-05
8.74998293523559e-05
8.88688491026559e-05
2.60220129839724e-05
2.08503503052075e-05
0.000103785070983564
9.40098537830282e-05
2.10797159677029e-05
1.63205172150854e-05
7.89577519958363e-05
7.91692619023076e-05
1.83403692356505e-05
1.77113696876038e-05
8.81898708686045e-05
9.60258840926905e-05
1.99249594940587e-05
1.56367092186906e-05
9.13412317298278e-05
8.88828786972983e-05
1.97531462783633e-05
1.85148081041784e-05
0.000126973412572191
0.000160716040066299
9.15236377450295e-05
7.98274836671101e-05
6.09910991529421e-05
5.94159160543917e-05
5.9704043384573e-05
6.74065012806887e-05
8.71932836270117e-05
0.00012656543743143
0.000248288070687663
0.000334267786995352
0.000498889673928836
0.000653139678493627
9.51380029293637e-05
9.20541230214671e-05
0.000668745524405468
0.000555329683567556
0.00010081304982446
8.19016149906554e-05
0.000493323354768265
0.000429881639468823
7.27276483688985e-05
7.0074504395422e-05
0.000460618563697499
0.000472200682140247
5.75388397794423e-05
5.61348731974515e-05
0.000519688952043585
0.000410023113487928
6.17368089404587e-05
6.59714263493367e-05
0.000358351914081176
0.000297319839617419
6.4954552898821e-05
5.75393256403596e-05
0.000266702732157855
0.000272678416227955
5.6643933135309e-05
5.233662226669e-05
0.000212357448996642
0.000197575499268536
4.85485750484356e-05
3.41843736223706e-05
4.49698594274677e-05
3.97904420859319e-05
0.000167950313686258
0.000185796652732631
3.07698065987252e-05
2.28748735497699e-05
0.000154391387791713
0.000166605986298616
1.92061242494167e-05
1.96911603009112e-05
0.000119738060385148
0.00010814252226876
2.18853519612068e-05
2.15417485019715e-05
9.8224522181152e-05
8.36947279982563e-05
2.34725674960075e-05
2.27290282393322e-05
7.51501899764644e-05
6.94893849513715e-05
2.25704840323595e-05
2.2917451983144e-05
6.05902044908883e-05
5.4272000953567e-05
2.42104634955591e-05
2.39767004047375e-05
4.97122664309434e-05
4.54004777773358e-05
2.32037357495392e-05
2.10197824884835e-05
4.31244009998108e-05
4.01533967238991e-05
2.30461465141274e-05
2.46759473979527e-05
4.05490795172128e-05
4.03474337941671e-05
2.46737669590592e-05
2.37063440741004e-05
3.99257436008897e-05
4.1295200132978e-05
2.27051224513288e-05
2.33774408277544e-05
4.19642795809043e-05
4.54406127347763e-05
2.24897427961257e-05
2.50797200139021e-05
4.99528692004552e-05
5.56133410842437e-05
2.3883085684382e-05
2.2864782378649e-05
6.15747817680586e-05
6.67889740905151e-05
2.34130658231313e-05
2.40324275808132e-05
7.65783202672263e-05
8.60720671263756e-05
2.34655183646964e-05
2.40358577677616e-05
9.38317838548505e-05
0.00012012504013508
2.33415029725381e-05
2.20870220474047e-05
0.000118167248946165
0.000116877625493778
2.17098010696126e-05
2.24622168744052e-05
0.000149355970084378
0.00014229224171174
2.85200742453211e-05
3.62392942054369e-05
0.000141311980864648
0.000153321641367708
5.13064712507617e-05
4.9107314552449e-05
0.00017380110610112
0.000182963305097182
6.39503072514438e-05
5.32869275648719e-05
0.000223659386100407
0.000251393478210322
6.21445739751809e-05
8.31949568025813e-05
0.000365045950744595
0.000468245252101523
9.54722673754673e-05
9.11279065253222e-05
6.14350588192632e-05
9.86396731773927e-05
0.000616617185095872
0.000755263499594227
9.41195164064717e-05
8.92525841428797e-05
0.000689589953175485
0.000667017371430365
8.33420726795508e-05
8.07527894611718e-05
0.000591001768355737
0.000678435546994837
9.2292067788998e-05
8.09014309223745e-05
0.000732765654737364
0.000958892750149023
8.14160334403635e-05
7.12034464799188e-05
0.00064118290283434
0.000650411318312553
6.57889322344369e-05
8.70943104472376e-05
0.000560766826547607
0.000786023514512756
8.61262712801093e-05
0.000110713801616577
0.00120782405149056
0.00109600796598927
0.000117008798605775
0.000139751929551214
0.000967983648691568
0.000852215885524727
0.000143583916604429
0.000119826003413903
0.000573327835464094
0.000532712330772511
0.000118054414311101
0.000108043664223882
0.000614127944581527
0.000430013181485244
0.000394712517346464
0.000431283795448075
0.000548459932272635
0.000107494272498638
0.000137656902619746
0.000817472865809361
0.000874556469525981
0.000117574800973047
0.000103910365759137
0.000862636075664887
0.00060439675273378
8.49149714498261e-05
7.76084479251264e-05
0.000430912794348853
0.000449146410459757
6.85303791112415e-05
6.11408147738826e-05
0.000429259443825449
0.000477436959517417
6.03349801601275e-05
6.91012553096923e-05
0.000494584169463962
0.000382212084682665
7.59836330602089e-05
7.49017334263095e-05
0.000342836652723841
0.000285299541564449
6.7861830246976e-05
6.82233867577683e-05
0.000317652894079063
0.000225870392512938
5.86809689349136e-05
5.42363564066277e-05
4.35098798271887e-05
6.05110327116601e-05
0.000221518298873579
0.000171990858805735
5.49452070993521e-05
4.79374162397161e-05
0.000186101493713985
0.000182178402261251
4.86210995944236e-05
3.63477490937655e-05
0.000100539198410592
0.000113127569786483
4.8348771687549e-05
4.90815650862687e-05
0.00010646404790178
9.57618052095946e-05
5.12801431378853e-05
4.52407979320566e-05
8.06660060848942e-05
7.84643367930129e-05
4.08874995319356e-05
3.81634207078314e-05
8.15484216649501e-05
7.83455313712558e-05
3.84605687893583e-05
3.71253153794232e-05
6.93128720294183e-05
5.43465123898622e-05
3.54248166947679e-05
3.52547899407629e-05
4.48640303710417e-05
3.83598513179738e-05
3.32174975137867e-05
3.15082994715222e-05
3.47885587389687e-05
3.27005062224978e-05
2.94879152516907e-05
2.89239332066725e-05
3.15695294327726e-05
3.05648250608091e-05
2.74424545179524e-05
2.74878841185852e-05
3.01814434509367e-05
2.97176372704932e-05
2.63158115050511e-05
2.6620353373213e-05
2.97643077987876e-05
2.93489583826546e-05
2.65265261794668e-05
2.63202549847654e-05
2.89098375881073e-05
2.8734948313214e-05
2.73465232660062e-05
2.75894187186008e-05
2.9565056047573e-05
2.95319371717026e-05
2.73406843672521e-05
2.71149599321368e-05
2.88438583178954e-05
2.88950807467409e-05
2.7054505760782e-05
2.71119400293881e-05
2.92955816503237e-05
2.95429120308956e-05
2.6349139122673e-05
2.69675107552195e-05
2.90099580929003e-05
2.94316361762234e-05
2.75197961368304e-05
2.73268993326136e-05
2.98373914445532e-05
3.06168959577135e-05
2.83699105498401e-05
2.82256710354016e-05
3.09770229908689e-05
3.19534528603845e-05
2.9805383443295e-05
3.04917320792493e-05
3.31819303342068e-05
3.54390454976955e-05
3.2547852511767e-05
3.38597027568279e-05
3.90966526157648e-05
4.56584484692485e-05
3.6177190338558e-05
3.67819746500128e-05
5.55252346052829e-05
7.1463869135444e-05
3.89446710281779e-05
4.03847339918243e-05
8.08999832148272e-05
8.65705139259022e-05
3.99850912220533e-05
4.3032130756314e-05
7.98397978173056e-05
8.47479389237407e-05
4.58922848589752e-05
5.23492793841702e-05
0.000106648310078466
0.000117184940328733
5.3186247720419e-05
4.23040992647392e-05
9.55084685596257e-05
9.36807950078894e-05
3.26986696874977e-05
2.94178217477019e-05
0.00010308995676312
0.000101450121031234
2.53982755980833e-05
2.66301106544122e-05
0.000108507424888181
0.000112592578111484
3.14205231786489e-05
3.91778605459391e-05
0.000108552049617667
0.000100829668576329
3.72557653438781e-05
3.25226399328411e-05
8.13372673370782e-05
8.06824339582275e-05
3.74749034132271e-05
3.1635598179026e-05
8.28574145952568e-05
8.0778814652518e-05
3.20547878018004e-05
3.11912875509237e-05
6.93305662130636e-05
5.48662693759067e-05
2.92819872442618e-05
2.89969657575553e-05
4.40140730447393e-05
3.71393007006673e-05
2.67737171560914e-05
2.61556156532188e-05
3.32866657254969e-05
3.07248557282205e-05
2.4311779483026e-05
2.41727809048482e-05
2.9333276250266e-05
2.82463217816276e-05
2.26149952904266e-05
2.30113858479167e-05
2.78247412410417e-05
2.71601907508101e-05
2.20726393263085e-05
2.24339403210927e-05
2.68281947056972e-05
2.63681104538801e-05
2.19995772352709e-05
2.13860935447369e-05
2.67797811612038e-05
2.65561425368855e-05
2.19616722143414e-05
2.21035081640643e-05
2.61191817406802e-05
2.60790529004308e-05
2.21433262392949e-05
2.20523994520016e-05
2.66831717398659e-05
2.67421099674224e-05
2.22472682306037e-05
2.23066562832116e-05
2.61247421714906e-05
2.62834654484146e-05
2.15026894222687e-05
2.15984571964416e-05
2.65963356360941e-05
2.69114170629652e-05
2.16220939479334e-05
2.1346739359768e-05
2.695583877833e-05
2.74224930389723e-05
2.24695543753964e-05
2.21028396864215e-05
2.78444285016385e-05
2.88580619174341e-05
2.34881722562505e-05
2.35925735072179e-05
3.01278731808618e-05
3.2497628185196e-05
2.54869837576034e-05
2.63578105828877e-05
3.62695381859425e-05
4.28263908035922e-05
2.82716048487103e-05
2.82247908530702e-05
5.37979497750905e-05
6.68754562707052e-05
2.98512709064725e-05
3.07741696842961e-05
7.77772893915207e-05
7.87366057452136e-05
3.0277211480856e-05
3.59288239041284e-05
7.99088518839262e-05
7.82203789253032e-05
3.24337694207227e-05
3.05878660447237e-05
8.11226583416038e-05
8.0305375509703e-05
2.63553664555322e-05
2.71112357872534e-05
6.94932815522927e-05
7.01410782960735e-05
2.65730585407739e-05
2.50094510059647e-05
5.32084054687593e-05
4.67283498979538e-05
2.5294048844401e-05
2.34835237202438e-05
3.58780065829438e-05
3.397034834895e-05
2.32780642250689e-05
2.12919293221852e-05
2.99464199372146e-05
2.92493667543613e-05
2.16770805085952e-05
2.01321274862351e-05
2.7660710560496e-05
2.72609753423894e-05
2.08836715204221e-05
1.95727983606963e-05
2.6478329828122e-05
2.67051339960012e-05
1.99641212001818e-05
1.99703099972909e-05
2.62359454276614e-05
2.58413239486589e-05
1.98837628052917e-05
2.06097750494558e-05
2.54883558372679e-05
2.64390843578676e-05
2.04543541362273e-05
2.03015135142489e-05
2.64520601447408e-05
2.54424613445819e-05
2.05733157485858e-05
2.04999476897072e-05
2.55121454462939e-05
2.61165570671766e-05
2.02896239902731e-05
1.97299346277076e-05
2.62098355726659e-05
2.58098879542854e-05
2.03060021206067e-05
2.07900562111238e-05
2.65612221812783e-05
2.68369195854267e-05
2.02184968951446e-05