/*--------------------------------*- C++ -*----------------------------------*\
| =========                 |                                                 |
| \\      /  F ield         | OpenFOAM: The Open Source CFD Toolbox           |
|  \\    /   O peration     | Version:  2312                                  |
|   \\  /    A nd           | Website:  www.openfoam.com                      |
|    \\/     M anipulation  |                                                 |
\*---------------------------------------------------------------------------*/
FoamFile
{
    version     2.0;
    format      ascii;
    arch        "LSB;label=32;scalar=64";
    class       volScalarField;
    location    "1800";
    object      omega;
}
// * * * * * * * * * * * * * * * * * * * * * * * * * * * * * * * * * * * * * //

dimensions      [0 0 -1 0 0 0 0];

internalField   nonuniform List<scalar> 
162506
(
1.03451170014599
1.07662160720526
11.7856351591818
12.4495955717506
16.6335714849711
14.2585704341039
1.59027229966254
1.21832474886032
12.9040129329239
13.6380659673571
14.1861245373354
1.10881773424061
1.11131651736756
1.01921563794819
1.00298010484494
1.00607045448887
13.0955832801331
12.3548789132631
1.02202831230252
1.46606846941734
1.66572417335546
13.3401689926091
12.7729296339834
16.5121417642281
15.9606933540213
14.2447932298292
14.3964002050468
1.00632413162402
11.8143756817544
12.5091827119618
1.00241088752792
1.00026630163546
1.00199745951604
1.00002299581325
0.999894496762931
1.00379904863868
12.2940992931831
11.6840030567774
1.00902080923484
1.61902018477496
11.6729974191036
11.6196994352014
1.47102104172663
1.679657194225
12.431322542358
12.0560066690229
1.13995881020024
1.65959951781255
14.5181255603974
17.1148226934388
12.496571287209
12.7377036563042
17.838461637475
14.9943028963216
1.81332669733497
1.52611044530491
13.6490029199716
13.1535642218628
1.44843143970935
2.41221851510038
13.8170721767911
12.6470114307085
1.60132879147865
1.03329013075268
1.00676611116708
13.9019360207335
13.0361244143572
11.6869158387114
12.0024580833095
1.0021633462471
1.00816419272121
1.00253197274751
1.00060272388442
1.00199232356692
1.00655219004362
1.00760959174658
1.12008334744741
1.3129895458906
1.84971967806201
11.9884520167739
11.9532604177379
1.5324002005921
1.00559837070378
1.00179027268626
11.8114412039541
11.6054414544493
13.1762210032199
13.9108967757248
1.00388363661565
1.01000354421137
1.00011774118594
1.00011101404299
0.999955675678196
1.00000192009088
1.0004702427635
1.00002769789624
0.999912182839559
0.999839496745425
0.999860268379523
0.999923118957825
0.999913052476113
1.00004741747626
1.00906703897334
11.6805825332971
12.2896222735622
1.00372066177963
1.00227566232973
12.4965942573058
11.8041479139102
1.00620005698088
1.46888041335338
11.6100200113093
11.6697584832012
1.61850837872647
1.88057048273978
12.7244949277313
12.7292529922029
1.88180833994648
2.02043138299953
13.4199645415603
13.0096081719851
1.80743285046196
1.21735668076766
12.3969392455515
13.533847794976
2.28593878571693
3.11166691491761
16.2309172682667
18.9490432926238
13.5103131505912
15.8230955577576
21.7773458924216
19.4480069963371
5.72827622226356
3.60463404574665
16.8257503817803
14.6522852483799
2.33572967588489
2.66059211697148
15.5961471038594
14.9065291982443
2.43032267633045
2.66618046441449
14.6605841192703
13.5245930678829
2.5209417475304
1.83661210146605
13.2115017844012
15.2974363826001
3.19405731479284
2.07702608924851
13.2957414085397
13.6020685805465
1.88366848127751
1.01321975287913
1.00525587205636
14.9669423948214
13.9111835469631
12.8154070823635
13.6253564094669
1.00477212799161
1.01060964826017
0.999925173469395
0.999940216961021
0.999911653063783
0.999769594928461
0.999803014290828
0.999922052081378
0.99997590987879
0.999986239527385
1.00050471889114
1.00007369655507
1.00035604362465
1.00213502291528
1.01995833510979
1.00330927764186
1.00433209081488
13.0739494161386
12.3333042093502
1.01948415173402
1.07035882889622
11.7628797714348
12.0304694709421
1.13312374521559
1.67636518600145
12.4187726303072
12.9948431590388
1.80500230887507
2.01897536289907
13.4132757008461
14.6137029210452
2.7350149543586
2.74789084601477
14.6352645873399
14.1965469385278
2.60862730519785
4.38032153282091
17.4532110808838
16.5670920515264
4.19650675096863
4.86902874336296
19.8262592688775
20.3775719124395
7.56518469816689
8.23107037341214
22.4226105750805
24.5387362192166
7.94555378026246
5.94796571926148
22.6293775692394
24.4155535555018
6.83577970411737
8.93990979425122
32.1975248129257
38.3473662423965
11.0841741517745
12.3822311605469
34.4617405002921
37.3122285322488
54.1382017893534
32.0018896717935
13.9697619820502
12.6388642954514
30.077198324937
28.5537493782379
12.2447897158423
11.8794808013706
29.9721754739842
40.5647005482125
29.14840747545
27.4414490750422
9.20543424513765
23.9757948699514
32.5244752794677
28.6462884864201
19.6722263045411
7.81890975607473
24.490812226273
20.6068758594137
6.08287216449429
4.32474395413851
18.8775390345194
16.6885296081988
3.19990439495843
2.95985425674665
16.0787459616254
15.2883821485112
2.75581998182984
2.07570941233722
14.863371763519
14.1534850433442
1.98353137393958
3.52580935737599
17.1323340582951
17.1379407644026
3.48581169874327
3.09091764924818
15.3369712033217
13.2263775234566
1.69013349009736
1.32003181110545
12.408418783006
12.4014252408182
1.32872057873712
1.01034393600942
12.8009993672217
13.608698786728
1.00482128790045
0.999955133673365
1.00005125096149
1.0010102190221
1.00003227537662
1.00459146845227
1.01696324051448
13.8699302286786
14.9182942044562
13.8559396126505
1.00534211545305
1.01138124266608
13.1299495578738
13.2725958664855
2.09852644248575
1.54314443723924
11.9440083800677
11.9906310703858
1.85635143919734
1.0079028309333
1.00225614458499
11.9725405340771
11.6715594829752
11.579455011672
11.7742794664655
1.00203030376618
1.0059100938963
13.0125232570084
1.03252493874662
1.00643541214707
13.8643168209817
14.1613283682453
1.10204443034221
1.10379132394865
13.436636201336
12.7321861372467
1.31369712372449
2.01800161035755
12.59543190242
16.0140904948252
13.5478549449985
13.2671852857775
13.7992790564817
1.1668114647636
1.15138171183266
13.113116334983
13.4797177968973
15.4106460650563
15.3805359854275
14.4627941051754
17.0622307287359
12.468153403186
2.09642460172351
1.55147200562371
13.1431946046326
13.6570872579297
1.65304764695078
2.26258179503833
12.7038604721778
17.7920608048692
14.9512363724832
16.2934151637956
18.9427565820729
13.6840734891213
3.75512811862677
2.36339895305157
13.5186564053134
14.1596719686136
2.59240878384032
4.35628447176563
17.2877612289036
17.869575876694
4.4616557225719
4.48550999282634
17.9414427801642
25.4998662786421
7.22186503796032
9.75649253648198
36.50579649803
44.866412292038
11.2440958655877
10.8288199970873
43.1601313262851
52.0920579475387
16.2508986650013
16.1002506500529
46.955474637841
40.674691035172
15.5409699683472
13.9857267749236
34.4362585285916
56.5134657598262
41.2216415675179
43.8618982480541
54.548218096059
36.0527043256661
15.0808633611128
12.9393915615963
34.7742602783973
32.4201670624471
12.8035869263124
12.0706597854429
33.9712521997586
32.0832412678811
10.4324276382463
8.95284165002644
26.6986864867484
23.8998448639078
6.92381466780163
6.47918267544869
23.807269392198
21.7574138028147
5.71747002110476
3.6718573447384
17.6668716025541
16.8705705805981
2.62163995367113
2.19035212020915
15.6088454549023
19.5022706757522
3.86920330486191
3.73975788532067
18.3531731957215
18.3337664461967
3.74553199380656
2.04822305832456
14.82145205007
14.0847839316868
1.91173953368364
1.91592613496956
14.079362471127
13.2250047857591
1.69043084399843
3.10442457224399
15.3372082370076
13.5831058978487
1.91021773384259
1.25922629070579
1.00128801526291
1.01041966698225
1.01817106654438
1.00081984499016
1.00030756500497
1.0001653658985
1.30022500319718
1.11919360551613
1.35729482522118
3.21760986446383
15.2979868681634
13.2092301269915
1.84653882044622
2.52976162089281
13.5313942722552
13.823191777567
2.43045708234869
2.47205690093161
14.9296647699989
15.6585109413699
2.76004862503294
2.55229164143347
14.7300953699866
17.1685549663769
4.02698485845641
6.2987436025115
16.4061703459761
21.8708669464902
19.6319293913078
25.0733345289578
28.8458970552124
20.9199019238743
8.65681636370956
8.15125239197333
21.0107122075566
19.7414913010397
4.89571228142657
5.9774981834756
22.1123521038437
24.7820658507824
8.62718428304809
8.89707061802459
23.5316388516194
26.0070066055417
10.0167510558753
29.1686825282016
33.5296639419143
43.4679732153366
32.4679199053774
13.5294457731153
32.8248230246936
34.4755687377856
14.8065386416079
15.970957772506
39.0586699229703
39.444049676022
57.6531104141817
41.1131395974836
17.5165235450094
14.9900628472032
36.2257728174682
38.1869456246232
13.0361302678886
11.89640412064
42.5460169709051
44.1945767711634
11.7014938134942
11.3354383287968
45.0372979072255
45.3480921454209
11.2930748471981
17.4207557238761
54.1898848771813
54.0371882333179
17.2449995862402
23.3491796708698
71.4080768751139
70.00136149214
22.344776929879
21.5129042210217
67.1428593076356
62.6353856499846
20.6829853431072
18.4593650270386
57.2293980097668
50.673082642654
18.5465565205779
20.9521610425069
59.5350664567136
47.01380091715
56.0144822711884
37.8579237323919
15.9112809648884
13.1901660433605
36.4491482063954
40.2651061896824
12.3542614009861
11.2927042166935
38.4665167375409
36.0895761309247
11.1354978956556
8.26574939183862
30.4490632121075
27.8445725644608
7.59312480041345
5.11683489468244
3.3185590464814
1.67698138265489
1.78026052410703
2.29304188642353
4.54841779124401
23.4465221106919
22.5422079964109
4.70015219994811
4.45787093255429
24.4092417165031
26.6804887653361
4.93953584866718
4.90124556857516
26.0806073499588
28.2895218507822
7.48798691660011
7.23721450459598
29.0031377949856
30.3148758148444
7.14976142891741
8.755538456455
33.1838906053896
30.6037617194566
9.06135482615967
7.05123630378147
27.3167137083619
4.74706940914937
9.43924104491674
30.5869590368527
38.1764127515624
11.7933216468423
11.1791679895468
37.049160326023
31.2547167193416
7.74503668542299
4.84610177067051
25.41256733281
25.6192623310712
4.79482404389911
4.82569853215361
24.6199897544594
22.5845678131105
4.69215078957511
3.97865738737986
20.6809646872541
20.6445257837488
4.00329246383301
3.88738133162019
19.4683322124708
15.507432638071
2.12245777311357
2.12947109158614
15.4929344570263
14.8127183148311
2.05690346564576
3.76000578732533
18.3120042410296
17.1300892892317
3.50281975480663
3.53833469978799
17.1283017387228
14.1430996586524
1.99325519361976
2.67844567325781
14.6655898810972
15.2818600890232
2.75805804424562
2.94219108005658
16.0348053875493
16.9463055604341
3.51369467711566
4.74527391552104
19.435363844233
21.586452409183
6.78876040269641
10.0435495919522
28.8417445726811
31.787970651871
13.5131362052478
15.0203526197042
40.8201715975012
43.2491318049718
16.7971607389482
16.4156801899181
42.3817484957811
47.1530889951211
20.7874567603558
20.8367188794204
49.8184450867308
47.5357273673465
18.0411781809598
19.6510875197422
52.3307433299737
61.8650839513422
85.4116461737038
76.2921435287153
27.9273212938216
30.6899467248485
78.2892418801487
71.3667796820777
28.6164099538436
23.7696048333396
68.0227094060835
85.5397283607499
55.5440998582064
49.1745975655015
73.4746520140321
53.4717239941219
23.5458866147953
21.6423402523196
48.6658264611854
49.2830115697352
19.1602115675669
17.6705467574704
52.2891042128935
53.3299893248115
17.7656093074184
17.5241015435851
53.8435678815806
70.446021498927
24.2180849668666
24.3459125258866
70.8188335837329
71.128273358166
23.7029257143339
23.8440065700806
71.1739741219169
96.3631783053029
34.5807438298591
33.8795987802965
97.0488595543763
95.7655675683112
32.5658383667538
30.6830730047955
90.723882650157
79.0964140507867
26.223412864145
20.5291370355108
66.0006031603903
73.8016812320261
22.9464102737427
23.3489060894937
80.736997573559
83.7873986002289
24.3296232026647
22.0939412807587
65.3069024209594
49.364786338273
58.1646332983604
39.2759894442325
16.6805703658236
13.4826975544166
37.899931612569
42.2952526856858
12.6095871844928
11.4103583349721
40.3311560053922
34.3253246650495
9.19893305930417
8.64919031016911
32.8793718839949
5.82421072738305
4.05709120485496
3.84289132302099
4.60328633710232
2.65929277205358
2.29886486436723
2.06316454611947
2.22863482666312
1.4513560484081
1.272531835604
2.34867822703709
17.5292776734614
16.8676843559472
2.23264932890887
2.16977819279691
16.1810400290807
16.1472500016452
2.15323950823351
3.97510175742314
20.4910442010097
19.4159751336589
3.9050779912953
3.82420637437235
19.4295272922153
15.5312514755189
2.18299457687457
2.89737248544778
17.1087316721946
18.0302785499942
4.05208800622994
6.48932241800155
23.351157034792
25.7298287828585
7.9663867225994
7.66117555071562
25.6651506538501
30.3760187438701
8.71352345279815
11.6668116175871
35.3628058628245
40.2742087099136
11.9819631937873
16.3072970825768
48.3623047632147
56.2099902022688
18.9528367490315
29.3447168909213
83.476409318427
96.8265911288362
67.1668794143098
65.9369577820281
95.6113714770747
90.4606615046974
30.6098648844757
36.3411551300509
105.460557080358
106.08752236012
42.1748316674324
41.224591170498
107.557002220232
131.396146232129
46.1230491047604
53.1641502383431
147.584938779572
142.413380454136
50.8729730952527
51.9975417710489
141.385370217778
143.797644751166
52.5169049306973
52.398010851545
143.927044638655
145.018743981299
52.3374520427447
52.5735507313167
145.250772326376
145.556923190482
52.7665109668014
52.0809119506065
146.106348596627
146.239769156598
51.5395970058359
50.2738727610039
148.137876709474
151.470044491259
50.3415463587706
41.4333846588269
131.417588534987
96.5428796707223
30.6195108169274
32.1081375563948
108.313683921415
113.733286302426
33.8228045424294
36.1171253384776
120.511375853521
86.6147088553699
24.7216485301992
25.9829480777598
90.246185678309
69.9021432569685
23.1939783722705
17.3764187658847
40.7940940051209
61.4855762136514
51.783020759612
54.4758976065129
65.6018855950713
42.8256412643377
17.9002127232397
14.2894877913064
41.4656556467469
39.4152559943832
13.7623555644477
12.9695182755069
44.3950616295839
42.2871622810019
11.5913205984184
9.43677180899162
36.3333819496334
36.5978802938612
10.6976278119421
10.3442410630244
33.8867674986088
5.72109870612988
6.36118326120305
4.98213747235423
2.31408503057116
2.48122263706375
2.20194350372517
4.32155263066176
24.3354784737956
23.2235210560007
4.20935899959987
4.13145848744692
21.9532346765519
1.91442190842382
1.16202221382096
1.14772586475243
2.2139866891634
16.7715776476568
21.5703332455035
4.02313348877073
4.03199080609168
21.7662093107397
19.7543236026385
3.56331313070804
4.47953079806963
23.1043159239462
28.0427066370795
6.95380973084108
8.82404375692437
33.16474312067
33.8773658292115
10.5075529011288
9.04019202198427
31.362171394214
33.1523085096626
9.31360576743022
9.79474856660122
35.5300341566068
43.0267041200981
12.5335908130354
17.300855934637
52.3139933865141
55.2908722585253
19.36243483575
19.5948607241102
57.3789901696205
67.0144999321914
97.1078601017443
95.2685993317678
31.6816731967726
37.9078339819046
113.882296090779
127.13417756144
48.1589497178373
53.8979235805586
146.720626075218
192.671625768454
59.6770869600768
65.8926255028134
258.22562016141
295.100168548771
66.8614998247213
70.6881182926688
283.718854815505
277.240255305265
68.4158486150452
70.4969293284248
277.800350898081
276.99094394025
70.9514730977692
73.678356013444
280.317369797916
284.98745653209
72.8856781919166
72.5357537090647
286.317963112238
286.231860061794
70.9622475967976
73.7431368447308
287.301202685377
289.907939861518
72.8868308760702
71.7518928886869
290.092426202788
290.142347885135
72.6991213341943
73.3846299908727
289.758693628567
289.255479596109
74.7104297140809
72.0965511018432
288.054188567958
288.423921899316
72.8291899784343
72.4609042660357
286.614134811531
284.157663862147
73.0806168611011
70.4345208382083
281.257470043498
282.263010192315
69.6516090169867
67.0815777524216
281.871459657507
287.209584695759
67.8192496634479
63.753665293443
298.841708879468
259.130246890819
62.4446111184451
61.9916046307468
247.734396338284
238.770878701557
66.3025273712905
64.9429963602596
232.989864458324
230.224042902121
67.3459125214998
67.0299075694383
227.438037416916
227.756785221427
69.7273716658327
68.7134029939243
228.148772007206
228.374398103972
69.6242221529041
68.4451989970125
227.495409310158
227.749505101932
70.3261006321778
69.3458218047542
227.561988503398
227.719120684715
68.9202651488661
68.2767362364414
227.468397669444
227.229352084649
68.8045846066091
69.2256921807055
225.630614003884
225.169152746263
67.6460349796766
69.2701618576206
225.509108223804
224.943160703792
69.0386372740304
69.8504107722225
221.687486622523
220.499982114315
67.1734845265094
67.7247664660686
222.218471580052
224.420023279037
65.7310486814433
68.8762855446534
230.972335779993
242.155910175622
65.1559418536792
66.3914936986755
36.5842243670896
23.9422321944196
13.2994417043145
10.5590580013761
7.12130780767933
6.01118668361787
3.57312514314505
2.80094439995517
2.46880839854421
1.85861273710199
1.80231104532184
4.13585307792464
22.6569216301404
23.3842948622877
4.3267266847347
4.54530557235407
24.9492862154645
25.1187831443078
5.06187612867759
6.76693130110515
32.493833281019
30.9133430782639
6.54155049323115
9.70638122871704
38.6437566354959
39.923409551308
11.5086035314574
9.66680905266597
34.4530621442057
36.6066095550489
10.0070412279209
10.3535986219894
37.3056358191275
45.2933345560094
13.449088139896
19.0721958452818
57.7640866201929
62.868276026387
21.2157537184466
34.9870144952652
75.5392138453443
105.863475436651
95.3245644927625
123.215759783154
39.7004340841068
50.1059555137206
144.619986647046
191.961881125163
56.9168231390958
72.4671788127959
290.985763481207
333.513402685055
73.3937875837672
73.9636023308209
314.9122269291
298.780071335734
71.3053065370223
77.1372755266746
292.079902277331
288.659999940745
77.9854830302453
82.2458660901133
294.686375831555
299.819026358494
87.0280968794898
92.3376165580238
305.717488834069
309.677540490334
95.2326733655389
98.8237044880214
310.498216640187
310.955155269028
101.301658169967
108.5764998522
312.910310500527
316.470402476568
107.23419927543
106.253819419566
316.200288358033
315.761836325253
107.998334939578
106.302918678893
315.336816123396
314.039366628991
106.431922367904
99.9677510616628
312.224927221597
311.941994773428
95.2273203844549
90.886955373865
309.677104134732
305.085297928313
87.7745173918037
83.4242157317375
297.832805351445
290.370987877123
79.0669591887239
74.3613185239794
285.145693827401
294.74603698263
72.7997285393637
67.9379866720169
311.170665886884
256.5917761413
59.2900932679463
57.6908545152103
251.847881159983
165.969376881948
44.0716854441139
47.2745772740474
174.482315111388
189.656860227679
50.5072811666132
53.9058336312115
212.514572280204
129.266387645359
38.3912049746909
40.6152828828636
140.947038711521
93.593881045293
26.2734588386003
27.3269920454117
98.5123663223046
75.2119337679817
24.0931488785491
24.6143017216626
80.724217512709
59.0921873240616
73.2859912041259
48.9254197337723
21.0610391061402
17.1528437876606
48.0451048183766
51.6554174376555
16.1195626797184
13.482022777169
48.5276662934836
44.4208491467797
11.8036463415204
9.6512756504963
38.1642452043613
38.5778519915588
10.7732789167868
12.2296432678543
45.7245018877897
43.2679449113692
12.2543146740826
11.3732314075552
42.1431187101875
33.3179275854302
7.0997694731724
7.11508569374819
34.2658144448317
28.4590032096304
5.77134134077078
6.2184463222798
28.4569506174222
25.6360537633285
4.48404921073613
2.576444443302
18.8750058505134
18.1428005818184
2.48999234271165
2.50554359329357
17.99562033005
17.3750813252333
2.34168054716449
1.27916412774316
1.47438629314726
2.00337687177989
4.31561336050534
23.7982798786992
25.3019650994395
4.58845993843601
6.27790282538307
28.1431385203737
28.3049895679256
6.16212199145513
6.64552741181432
34.3885140412921
33.431441341777
6.50628363441166
10.1151098975046
43.6771160754665
41.6938924870156
9.94522648257297
11.7480499784343
43.0870000643977
45.4257479222861
11.8705481284271
10.2937053030748
38.278802617547
38.9184339822066
10.8269528731304
14.3188943778214
47.6418204353588
62.7655266038482
20.1214525155933
22.1176378056095
71.3772127623371
90.4919682890095
125.808274965305
101.560432284578
37.2914638924767
42.8262204774616
144.561506463962
173.317019291332
54.3057365760731
63.1267778796329
237.042443915569
343.56083828495
73.6276926491171
93.4046825279732
452.256982055351
422.270051289701
96.0255679277146
106.324662349594
424.955296373372
504.342456460752
133.501393774205
169.915055641746
641.586557214554
799.809813021676
201.971280788788
215.641294722046
845.443300480224
859.893563069996
225.903042047014
241.003094865567
863.222363107958
867.179172295737
262.731354365115
284.713455824871
865.353563209796
863.794932060782
304.40036247763
318.878389031431
857.860911140091
856.271749015272
331.60626235647
340.415960092174
850.161009431193
851.042030789926
349.505446880545
354.709182019285
847.85255680772
852.016075573567
361.897679200701
369.81060188253
852.435076403411
858.18587899129
377.825734474108
376.822200759591
866.699612849849
869.668897731153
371.443209951977
368.846262680053
865.615835036326
863.812825878541
376.282753627887
380.29519251748
863.466686102449
861.531951905709
373.241030325825
371.960040461902
865.410590842569
862.031394087365
370.23151658849
369.358428130676
864.548544533406
861.091052121831
361.116820230864
352.664338387998
862.771787705027
860.842077740394
342.883578193624
332.775895477317
866.010820114025
867.154463343488
318.878562407319
303.368553254539
874.509177351057
877.000962893245
283.121941870855
262.742956118808
881.380301663376
879.41000669913
242.638401066699
228.609702825372
876.355378721216
860.195753438575
218.142987335489
203.079613146721
810.501803269419
646.142002772623
170.845269057142
136.082142643234
518.069367259636
458.940474495051
111.17487028597
93.6340109857469
459.025221235107
325.547324579616
67.2564586237773
63.2363427249062
298.85618865419
281.40313168984
61.6926111512986
58.9678651353621
265.336405095827
335.543811486724
71.2388466074995
77.9708051407404
367.137611008443
408.040792766758
84.1242966089418
100.06321449218
400.153764176948
434.915591692372
121.860268788058
161.043404050647
586.80412870695
704.596636603471
194.560064832788
207.463798973651
741.514838525094
755.858287080089
216.66880122035
224.611305537282
761.917198722597
768.041568152483
239.805296303361
255.750471437259
765.716000933537
767.619967568453
273.534520075172
287.682575604228
761.794860918403
763.929965986572
300.985346514638
310.662925085498
759.126166937932
762.789611282245
320.194426508703
327.991780388565
761.287817998045
765.305663642401
336.115909678538
337.018889850329
764.022418855813
766.943784529516
339.663935660614
340.651356269123
763.816198221013
765.766528289179
347.064685264725
343.11843951105
766.321939100354
767.000343580494
337.170814213196
339.531221071749
770.199524598814
768.406278593781
343.265482919398
344.182310762112
760.490560517964
756.022327958506
336.994410818305
329.321608734229
755.040137659038
750.864375724012
322.302693704275
317.432840896935
753.839433531653
751.016771376473
308.265398444876
300.12803728
756.575817003861
754.898198859455
287.949489757641
274.689855789684
759.266774646122
756.859986541219
257.465852822387
239.53943030703
756.755639348481
749.451859340488
222.747788556555
213.873607794043
743.581879595324
730.193295623167
205.073594980075
192.980209836207
696.061122025921
582.109121195806
160.008009642872
118.518778766066
425.95741749397
482.737329362687
148.196283891571
174.366262777908
546.346044495976
567.355360258842
184.641695613617
192.590574528483
578.240283040018
582.273592648424
199.684266406127
212.121587881712
589.125265737094
589.331997427948
226.084111592849
237.825488229703
594.528313775763
591.775514347769
248.630476976892
258.54803281225
595.634060067354
591.050553700764
265.661248594434
273.99985465536
594.666898452307
592.327787734551
278.514784358512
284.564515370066
595.698736026958
597.085015968934
292.03760390722
297.916538631879
599.820946624084
606.397576276108
297.02698192016
295.152447201549
607.419888704858
605.164345730798
293.069922701651
296.854057602505
605.010905638504
604.386572222739
300.513406553797
295.725278799019
603.012028365112
605.192684062237
294.996005010686
291.527850347497
602.935406317644
603.207064153532
290.817480305406
283.477216926995
599.675144685162
600.763242213315
276.398334928259
268.186595777199
596.508616137616
600.522731061491
259.416368295886
248.593633944877
596.177890397639
600.313078870276
237.161177442593
224.731211239781
594.971764761275
597.067400135572
212.752215413562
201.125543970229
590.522453994426
586.249256282944
195.103985611256
186.911883731119
575.405165081858
553.528353890451
176.285554012337
149.380138579928
487.65743161771
400.167228207053
127.688997192863
99.8755073555972
355.20208115504
353.715328398268
88.3803177300056
79.0735722400019
319.187134391833
311.018623908168
82.9603270629144
90.5497281479321
321.73177149551
334.050827320104
96.7036278588297
141.369238036297
426.405305284348
436.027711798124
152.702515149991
170.423929849283
438.639620537932
439.362755519289
189.407150897289
205.806231565813
439.413804741927
441.506461828728
219.054504215229
224.161714747993
443.464128269278
443.473073462309
228.414669477893
226.064225735207
444.462814048461
445.540535360862
226.903823092729
226.255775673009
439.588430403315
436.374515908135
214.304764833955
203.681503910399
435.612443440201
436.073753853362
189.407765400061
171.79071058542
434.484468391315
429.762513593941
152.697482527339
139.762601468259
420.236825968052
396.014352154847
125.691304422865
97.7162255205231
351.473231463783
332.897969292172
82.656482938515
94.6565372537967
372.387828147909
375.967270821304
87.7509169698938
84.745268371347
403.145817050559
315.680806539444
70.6608461882579
60.0959520454623
208.491558530779
298.659597179386
70.7114097859613
79.403966555973
365.46794201686
341.498621783743
80.2624840598838
76.0742765913505
321.62103408788
309.983912331217
75.6113792048069
83.0432090743408
313.644747258319
319.541901667707
89.0464263365299
95.2860336063096
329.352746241896
335.576733254401
103.427704553158
115.313056671357
338.822718158826
339.773862478535
125.697879632768
134.783842247394
339.125389498044
339.059204127489
141.627833804456
151.204791991226
341.19211574634
344.91836927936
151.120049256547
150.437773739119
344.47303541687
343.896158073955
152.132394114139
149.036005763806
343.501957637406
342.622339729169
146.313234953038
136.533251234181
341.449338613535
342.387443439911
125.630340847855
113.803573432382
342.430885809565
341.16622735678
103.385497515994
99.9632184264684
84.3753800466187
80.5379920256381
75.8582144398094
72.9195332004329
63.0064449463839
59.6647027320628
55.553541470968
53.4016064903223
43.9952292218649
41.9511538989555
38.1357657990264
36.7212304424591
34.0656135565354
32.3790329620175
30.5845163040393
29.2846581771488
27.1754554795225
25.468314700189
23.5513172838123
21.9145277310086
20.1241799880417
18.3392820820988
16.3060211889285
14.6926374582399
10.2754602199132
11.554034061029
9.2341886664152
5.88445205327561
2.86570482734457
2.03200028217056
1.42546634235883
1.54013866653209
1.62320303836451
2.63633081372084
18.7887144232041
20.7415616141987
3.89659720123932
6.81288775113499
28.9047123697826
37.5526986683719
10.8096898897858
8.29727363900269
36.1596611096823
36.9700343272851
7.00233626563177
6.57106542777817
35.3626743590227
47.4440757579287
10.1396543217968
10.2160878020128
45.6470293527437
47.7106606200396
11.9668785253838
11.3669554068521
40.9904457267593
42.1372497290244
12.2102512100486
15.0293622398373
51.2872377007676
67.7529163347725
20.8184294155014
22.7175580448152
77.3091702870721
100.15465603014
144.75616613205
114.970637166272
39.0329834657266
45.1597249117008
172.715547669248
223.742038124804
58.5305484159372
69.3112598672924
362.260259833845
552.760701665746
84.7580313113264
139.663599394362
826.315334639285
775.447207335159
141.511178923265
170.434768696336
836.089225628226
1113.01943440184
216.425491874747
295.472598157676
1600.49024782249
2127.97456333315
401.207164153762
436.342516999455
2238.10378929708
2241.36895184731
436.743367010412
444.215783612755
2197.21671483886
2125.83256216839
461.624242125031
481.668437544319
2080.13906027404
2110.96229296671
472.217840896336
443.255201655166
2159.97463289282
2194.70010077983
416.916256206033
409.252653346199
2219.59840644402
2225.87286868043
405.779515468074
409.465947202681
2231.30421356916
2233.64893928916
408.984576543968
411.470282125684
2225.95832840459
2241.77679597603
417.438886691755
416.375807632684
2247.54559661041
2274.94967839223
416.753579014713
412.866563882007
2265.71059018234
2245.02082236379
412.992069560329
416.839084967912
2247.11830893932
2248.54469628198
413.84435648644
415.432493821209
2258.88832532739
2245.18482916714
415.6195122758
415.618619519959
2255.61267066007
2259.18378548905
413.996029716492
410.299089050415
2254.86582213813
2247.08915935692
412.526281533851
419.374240743684
2221.57157842268
2186.57540329146
444.899809445787
475.530737281521
2142.09077433751
2115.91350579991
485.567738498481
468.221351465339
2165.86313432344
2239.04333121279
455.66943504163
453.750897693352
2283.01632760559
2274.00550673245
454.189047787956
410.939370881031
2150.63379988116
1606.3477713869
297.591881941476
217.238478799787
1146.60028819041
907.950028218255
168.79504732807
144.319542488318
843.048107996048
524.497291583911
83.0342392172245
76.6828994904105
448.899228383582
401.076670199996
74.5577851192386
69.4103323901058
353.88448211658
529.320518230444
101.288134658314
114.168103415127
620.636020772261
726.733984299809
125.544575478066
149.89765134373
765.892658140602
942.692322712337