/*--------------------------------*- C++ -*----------------------------------*\
| =========                 |                                                 |
| \\      /  F ield         | OpenFOAM: The Open Source CFD Toolbox           |
|  \\    /   O peration     | Version:  2312                                  |
|   \\  /    A nd           | Website:  www.openfoam.com                      |
|    \\/     M anipulation  |                                                 |
\*---------------------------------------------------------------------------*/
FoamFile
{
    version     2.0;
    format      ascii;
    arch        "LSB;label=32;scalar=64";
    class       volScalarField;
    location    "100";
    object      k;
}
// * * * * * * * * * * * * * * * * * * * * * * * * * * * * * * * * * * * * * //

dimensions      [0 2 -2 0 0 0 0];

internalField   nonuniform List<scalar> 
209453
(
0.0158076659226543
0.0168296079200045
0.0223851681229413
0.0212634796354354
0.016558736593438
0.0164664457197564
0.0208311251343726
0.0201798043227375
0.0197717986862413
0.0157908245677865
0.0160117874712896
0.0155316430055027
0.0153837701086823
0.0154614893733308
0.0155995917728884
0.0161735541507696
0.0211275878165517
0.0208392817891503
0.01588725442591
0.0159776560974471
0.0222475237181174
0.022363143230984
0.0162969981533352
0.0156858485506249
0.015536989972795
0.0156226162557044
0.0157762103869931
0.0165463127192682
0.0236502749301957
0.0235528432807676
0.0161809687825734
0.016743970197538
0.0247259429824984
0.0249249352732001
0.0171747492707777
0.0173153022802045
0.0253258528603165
0.0238037755283515
0.0169775823393651
0.0171497328615053
0.023437667167841
0.0226916820565097
0.0171547527420354
0.0169917112740081
0.0210312193130433
0.0196517067741917
0.016580006021497
0.0160330523678009
0.0186258219868806
0.0171719989380399
0.0155531257082616
0.0152644847849612
0.0163347491359549
0.0157512306173991
0.0153141786821335
0.0150262958133342
0.0150622971137417
0.0150494730213991
0.0150148613230552
0.0150111818311231
0.0150081883728938
0.0150231601132609
0.0150386967241124
0.0150746209067476
0.015047520733799
0.0152259698047127
0.016341584198724
0.0163916301493412
0.0152585080851221
0.0150607918005971
0.0150872165212768
0.015603697228281
0.0157018331597776
0.0152726564510864
0.0152904935413832
0.0150252629896929
0.0150264934572323
0.0155448511312852
0.0171624868883545
0.016993433506465
0.0154242423771553
0.0151091783493247
0.015166982522642
0.0151827768750451
0.0151176734613629
0.0154490757947751
0.0156441037213267
0.015666085837297
0.015465643113198
0.0153237182211994
0.0154461698371433
0.0152038054517215
0.0151312584812468
0.015087612019546
0.0151277446029538
0.0152119761131529
0.0151453573584873
0.0152024807387047
0.0152684346535484
0.0153171036116997
0.0152622019430887
0.0153312426234282
0.0153931580109369
0.0155324436184851
0.0154210173998356
0.0157834041011089
0.0160101830824162
0.0163397294183972
0.0161756599766422
0.0173984591174338
0.0262421065907857
0.0263093579370786
0.0176917749636772
0.0178067211354029
0.0267377709936216
0.0258562583926993
0.0175015002838196
0.0177631598944773
0.0267434386986854
0.0276268555530792
0.0177895754194917
0.0178525779572436
0.0273527191264328
0.0278154845770597
0.0177463315726036
0.0178037870965134
0.0280273429610893
0.0307204694799284
0.0193329039524786
0.0189044316062195
0.0297914362992103
0.0290476308284696
0.0183373720460324
0.0185500931061592
0.0307890526787814
0.0299392006985416
0.0178441975346164
0.017413421684759
0.026911651977896
0.0246838153756243
0.0172537837931049
0.0168063223732438
0.0238136044178659
0.0221876191184771
0.0166973787660172
0.016582859331711
0.0207681112353045
0.0195448209140707
0.0163208233026513
0.0162481053331853
0.0194027852976799
0.0184881513902684
0.0160181550190804
0.0155545250894406
0.0172472172366763
0.016428672123259
0.0152818408787975
0.0150548905012656
0.0150201739295268
0.0153218685183834
0.015828024666003
0.0158364374505815
0.0152869899251289
0.0150116544030493
0.0150342792411146
0.0150180557910468
0.0150079285779529
0.0150133001894222
0.0150341577137751
0.0150386212866815
0.0151489916026563
0.015095179901983
0.0151870045163863
0.0164386150712768
0.016440761710182
0.0151165658342052
0.0150162722734162
0.015004464318331
0.0152883781300999
0.015830214101776
0.0159096553096112
0.0153437203592952
0.0150014126397878
0.0150127030558169
0.0150087741667424
0.0150047834399975
0.0150026256241934
0.0150051238621279
0.0150087298761407
0.0150038776860038
0.0150054226418452
0.015015888196423
0.0150107266695528
0.0150051825705966
0.0150033867800981
0.0150044669107176
0.0150017809449986
0.0150014649405042
0.0150035013436071
0.0150046293691765
0.0150091344880473
0.0150064744083987
0.0150076081121819
0.0150169244112371
0.0150632817779767
0.0150329642861188
0.0150202964315692
0.0150298291037028
0.0150765716175705
0.0150568783225637
0.015083399447586
0.0151007010802564
0.0151335793234395
0.0151190908088633
0.0151579963823088
0.0151928240184769
0.0152359469320895
0.0152006698790675
0.0152442015932799
0.0152819480259247
0.0153351949272378
0.0152923079515408
0.0153464208720447
0.0153888401770759
0.0156715239829899
0.0155542180068366
0.0156354218892137
0.0157341195172713
0.0163865175763401
0.0162333791256153
0.0162341395059934
0.0163786906051559
0.0176339584618632
0.0177277786052758
0.0180845162092999
0.0178019939040386
0.0177434080217572
0.0179715234475014
0.0193060696409781
0.0322175456768379
0.031248384206902
0.0189277068434841
0.0184108044346305
0.0308865549636658
0.0324026079006721
0.0185922488619217
0.0202600661177084
0.0344730581263844
0.0342515988413222
0.0196616667093659
0.0184467252694159
0.0310615119393852
0.0280480652609258
0.0173113853239918
0.0169454877661981
0.0256725798226165
0.0253368446206763
0.0164433239029523
0.0163917684373016
0.0236342554348798
0.0221445857603862
0.0163775144570573
0.0163779207736318
0.020722720280965
0.0211370134798386
0.0164372910734671
0.016361610269434
0.0194965093570651
0.0192721444585644
0.0160942179736723
0.0157618382848864
0.0184040569296247
0.0172329321365343
0.0154240699898768
0.0152508930501988
0.0172105680286879
0.0174152257754971
0.0153794446331133
0.0151596118562428
0.0165732642971643
0.0166609969113475
0.0151424549054705
0.0150113637229356
0.0150038527804837
0.0153738820521604
0.0159613604215657
0.0159023233698757
0.0153415429341581
0.0150023491996792
0.0150089923587144
0.0150061425067355
0.0150027055903539
0.0150026699320264
0.015006446056332
0.015006608203854
0.0150025379899667
0.0150025402868658
0.0150067269239768
0.0150070412660061
0.0150018002978722
0.0150010404453576
0.0150009453407838
0.0150049163298056
0.0150054011840058
0.0150155559058806
0.0150132436191724
0.0150313803499662
0.0150406199531175
0.0150878563033262
0.0150698347486423
0.0150949261748867
0.0151078922215602
0.0151373049539407
0.0151282701214337
0.0151152165214302
0.0151257921596913
0.0151594354069332
0.015149567943878
0.0151558875069626
0.0151702126688659
0.0152078781875472
0.0151925890032394
0.0152300310435374
0.0152463776232327
0.0152834482624102
0.0152673773707631
0.0152873593938591
0.0153039338162694
0.0154096630841074
0.0153682898084971
0.0153766129821751
0.0154192760933
0.0157029802985129
0.0155910313548297
0.015630455713488
0.0157364810732171
0.0157894760696919
0.0157010886590223
0.0163021395240198
0.0164470133287103
0.0164364770105876
0.0162918450449325
0.0164852472165738
0.0166015063768396
0.0178560793576467
0.0181106046518411
0.0194978498907589
0.0355690403206948
0.0335590114597932
0.0191887403949069
0.0199818600525433
0.0207963822971953
0.038321613646013
0.0356185509664266
0.0340467457997875
0.019110040694787
0.0197679287121011
0.0360920669344149
0.0386924202169044
0.0430525927700241
0.0215604106733819
0.0204250168691118
0.0193173207024525
0.0188262911379264
0.0188599135371458
0.0193241391717173
0.0205152110755285
0.021485112231406
0.0458141653028109
0.0410874244538255
0.0433093263420606
0.0205849737092032
0.0207608081581758
0.0398569040353045
0.0397677995318251
0.0207976081023746
0.0207267089063805
0.0366421569456519
0.020464339831094
0.0180977362906451
0.020487390287409
0.040358629460886
0.0351729725985521
0.0201749080428509
0.0195928190788855
0.0327298024609988
0.029573928249219
0.0175556795753742
0.0166127758079163
0.0273064733152039
0.0280855518033839
0.0165787138294682
0.0164917807366884
0.0260540872906284
0.0242865982441452
0.0164624298671384
0.0164546969034155
0.0227587474545873
0.0234932854379894
0.0165557081211703
0.0165811085120294
0.0213938353831708
0.0205320230043001
0.016413248101003
0.0160209093789489
0.0197796470510955
0.0189781017509727
0.0158652711094592
0.0158749358659519
0.0196714368930746
0.0181593971230018
0.015465190099492
0.0156216495727945
0.0185624455239294
0.0186802003457697
0.0154700214162236
0.0153452584661768
0.0175316870835335
0.0173244344942216
0.0151407263921846
0.0150695966186368
0.0165556163337061
0.0165526227685024
0.0150713767752488
0.0150133332414513
0.015899852716489
0.0153411568712118
0.0150034280727147
0.0150039328434241
0.0150085955649263
0.0150073988772248
0.0150026986883221
0.0150024729919799
0.0150078165789506
0.0150080668287094
0.0150022487494694
0.0150016669737642
0.015012729679949
0.0150065698548833
0.0150051085440113
0.0150002835231226
0.0150001308095215
0.015005724109414
0.0150042779525592
0.0150225552718026
0.015037962042906
0.0150785622165521
0.0150530781446005
0.0150163184772921
0.0150230041674541
0.0150773909704166
0.0150484887176325
0.0151027686850379
0.015141513706415
0.0151675610665033
0.0151334191833643
0.0151741429504879
0.0152066055837457
0.0151444783834288
0.0151322675701058
0.0151681403031474
0.0151799665865506
0.0151707145942959
0.0151623800559711
0.0151963936208961
0.015204923614651
0.015193929274019
0.0151838404474282
0.0152184521310235
0.01522899765963
0.0152632611500968
0.0152524833756093
0.0152711464017961
0.0152829478223343
0.0153027786487189
0.015286048481702
0.0153058976398889
0.0153240709390751
0.0153251049529486
0.0153070652628895
0.0153911267116931
0.0154313747442394
0.015442672072051
0.0154020078146208
0.0154253581166577
0.0154665650279002
0.0157635154866931
0.0156638211481526
0.0157851135437655
0.0158473102808977
0.016534333868386
0.016391672614685
0.016619996925301
0.0167098920588495
0.0172197580703961
0.0171351580396261
0.018630264822341
0.0183620414397682
0.0171648477730992
0.0168637060944094
0.0163484479612853
0.0158414418520488
0.0157303067770505
0.0157340746474387
0.0156806070036027
0.0156705585692807
0.0156354762001453
0.0157505568372277
0.0157355451496919
0.0163036357342125
0.0168701932976068
0.0268446351803734
0.0238114582435073
0.0164530295796963
0.0158126589603639
0.0218216390794935
0.0201168079300153
0.0156110776609779
0.0153226038813493
0.0193236225016941
0.0182407533967163
0.0152218280384328
0.0152257573620766
0.0182248089403031
0.0173170184871255
0.015143819863506
0.0153591007522613
0.0175243479826051
0.0166620252664219
0.0151469295713238
0.0150112774012807
0.0150055242017756
0.0153728564724695
0.0159609786939307
0.0159107927266309
0.0150130498272845
0.0150018671044308
0.0153425022181979
0.0152870856381692
0.0158055461344837
0.0150154180075124
0.0150023705090795
0.0150034676859702
0.0150087412033772
0.0150071161836538
0.01500307726193
0.0150044602759759
0.0150095305554512
0.0150128564170015
0.0150590163498324
0.0150554588644672
0.0151643062751589
0.0165770232768722
0.0164011257637005
0.0150998353045595
0.015158465171457
0.0163851213336698
0.0158073931308572
0.015285276352408
0.0150065825222224
0.015028277614061
0.015014774295974
0.015004693151901
0.0150097152322663
0.0150330066126405
0.0150440984650995
0.0150090878310252
0.0150270155686937
0.0153128721267362
0.0157399329614836
0.0150625476149503
0.0152805882040901
0.0163156757547193
0.0162936591010761
0.0162772334075995
0.0151432733263641
0.015252547831944
0.0150607277586939
0.0150440982824209
0.0150190674411688
0.0150270019965646
0.0152725216580707
0.0152904667948071
0.0155948200128124
0.0156530426179084
0.0155927334696812
0.0154126325356619
0.016873706767981
0.0169833077496337
0.017159428442344
0.015544672701188
0.0159817430731104
0.018568625610379
0.018257827172064
0.0179214821475546
0.0157005424534806
0.0158420383258878
0.0156366496216149
0.0154208881226119
0.015132362255228
0.0152003200029391
0.0152271877094855
0.0151512392550566
0.0153089220736735
0.0154455292650309
0.0156586105120091
0.0154372814769384
0.015697187032638
0.0159202406879203
0.018968643220154
0.0186175600865629
0.0195666539028341
0.0157370847921111
0.0159898942578714
0.0199239587333504
0.0205792400972975
0.0163905723182593
0.0164703767151447
0.0209926982636419
0.0208342090846229
0.0205959657139137
0.0158022892783544
0.0161212254657919
0.0155674899790826
0.0154199406027298
0.0152223080997853
0.0152775788798627
0.0153270501317893
0.0152751737736205
0.0152156518580064
0.0152486362161602
0.0152909589551518
0.0152565641856638
0.0152034977352231
0.0152156538952883
0.0152518431895954
0.0152395257954514
0.0152309588578449
0.0152400078323515
0.0152747546880725
0.0152651054712166
0.0152839919780492
0.0152948708547778
0.0152828110824883
0.0152709753682929
0.0152908403006652
0.0153046785502592
0.0153045644366979
0.0152908089393993
0.0153110161947943
0.0153277879140433
0.0153466665473989
0.0153260633993615
0.0153271110466528
0.0153476161915835
0.015452884474705
0.0154129808075029
0.0154250214327544
0.0154604435977046
0.0154745122383245
0.0154408034265965
0.015453219788856
0.0154877486364755
0.0154885067369577
0.0154541657380621
0.0156845452434066
0.0157688496146744
0.015792973558093
0.0157082871524764
0.0158160786539132
0.0158727864339328
0.0158779320404729
0.0158384724451377
0.015922293041375
0.0158819676616906
0.0158553449443252
0.0157989250487843
0.0157952579853075
0.0158542389546438
0.015771987125695
0.015681547250508
0.0156712780068268
0.0157607306452695
0.0154741569733175
0.0154375532090167
0.0154374010571783
0.0154738930778436
0.0154884157827222
0.0155243562976127
0.0155409884376578
0.0155497648763417
0.0155496141911661
0.0155638797072639
0.0155641289287917
0.015565834133231
0.0155653519883145
0.0155739541550834
0.0155722457581558
0.0155893024217573
0.0156132483040161
0.015616441234789
0.0156768796395966
0.0158177904145201
0.0159060852254624
0.0154493465604646
0.0154764452026322
0.0161931051759448
0.0237850078386392
0.0221006985858473
0.0159382963515116
0.01557830540133
0.0205821854134031
0.0205523151109204
0.015779659195131
0.0153624885002502
0.0192929622827582
0.0200031326550232
0.0156806112163819
0.0154766450145836
0.0186404591550652
0.0185120676015752
0.0155242715635689
0.0153762641902807
0.0180439286283267
0.018075224424223
0.0155759978711252
0.0153239857742829
0.017124162411687
0.0172038382611312
0.0154688133899075
0.0157223112335002
0.01820960771462
0.0199867247691827
0.016345458615276
0.0161651422741042
0.0192461362548211
0.0195365039724931
0.0165619064280829
0.0165844978007414
0.0201887803565674
0.0214796751002219
0.0168777416676341
0.0167034082102136
0.022077265266501
0.0220431363993339
0.0219961397124966
0.0158653788704155
0.0162150369436934
0.0156391035147908
0.0154919037354327
0.0155900389242945
0.0157373861657175
0.0153883653057972
0.0153344478981026
0.0154091299512454
0.0154715688186527
0.015335530126377
0.0153001041282128
0.0153450716340044
0.0153779991280722
0.015286929914594
0.0152748758786096
0.0152941973616434
0.0153071774499207
0.0152948583769229
0.0152839828954562
0.0153044431115126
0.0153175791126951
0.0153173733278247
0.0153042627585034
0.0153253427393535
0.0153418706551458
0.0153283193932052
0.0153113532793418
0.015322243839584
0.0153366401349474
0.015349438507585
0.015336206597265
0.0153356600116324
0.0153486531916303
0.0153485513531361
0.015335544358085
0.0153502385802623
0.0153666333101732
0.0153670596698293
0.0153504793382831
0.0153514160063287
0.015367834364082
0.0153677180430763
0.0153512702408054
0.0154350680632754
0.0154681555204315
0.0154798856573475
0.0154488904274704
0.0154580607850141
0.0154900585142493
0.015503290765124
0.0154705065477214
0.0154720077027688
0.0155045766167399
0.0157790310588781
0.0157002580923866
0.0157353274112616
0.0158163871291852
0.0158969092879339
0.015841040882052
0.0159095976548246
0.0159334253827067
0.0162694072869154
0.0162793759133361
0.0163149451968974
0.0163060988206472
0.0167871173592259
0.0167057130400759
0.0172399319004313
0.0173177215699598
0.0190076436371156
0.0186027742958335
0.0209142317598453
0.0448559694795891
0.0409364595852165
0.0203718076175111
0.0204927147177572
0.0430176012968043
0.0452842870350346
0.0204747774799065
0.020754542985002
0.0431802437581873
0.043680737289904
0.0208508864143918
0.0209301125021621
0.0488844905579457
0.0442065119502014
0.0215578368875105
0.0224080311438586
0.0435005343281228
0.0380205813167288
0.0217314905418365
0.0215202006821811
0.0375796296457868
0.03508641293013
0.020846407120748
0.0203965107079017
0.034315171611241
0.0367157616106419
0.0193652360244856
0.0181148876557369
0.0328922337539062
0.0303414145591632
0.017090872012617
0.0169089752310612
0.0331270847161336
0.0301430114190159
0.0166812110609035
0.0166123657373784
0.0274901803649543
0.0252939949966298
0.0165707827826548
0.0165751413922082
0.0242668590364882
0.022807180814093
0.0165589448337263
0.0161647735328291
0.0216959328415603
0.0205098898203416
0.0161139364212682
0.016060313757289
0.0204449622508199
0.0159918713683068
0.016104444949102
0.0161642304461246
0.021830990128716
0.0227416364733306
0.016148426050057
0.016052371838199
0.0202825244677396
0.0153301147991837
0.0151317018854961
0.0151355162254233
0.0152891516439044
0.0159390845340163
0.0198889036987912
0.0191131642987797
0.0156827137711764
0.0160335821796606
0.0194292620561821
0.0204117369490461
0.0164223480721378
0.0167986987860624
0.0211220191344843
0.0211273915312031
0.0166140293359871
0.0166582858155173
0.0217131109439424
0.0224641142392187
0.0170406114475116
0.0170273371488196
0.0230995142879369
0.0234102619556549
0.0168996532667873
0.016260867686914
0.015908271543186
0.0227944079417996
0.0232446364923715
0.0243566462841939
0.0239034085489899
0.0165030473235383
0.0169715887692843
0.0159415027217041
0.0157498620332114
0.016148312871729
0.0164233169010317
0.0155839239148928
0.0155158519915805
0.015544683789356
0.0156095133895013
0.0153996273082653
0.0153669115512309
0.0153652580123472
0.0153970070054291
0.0153071796271712
0.0152941216605956
0.0153150776940153
0.0153301880930006
0.0153298780476376
0.0153149519756557
0.0153366679248048
0.0153548722080415
0.0153424487061593
0.0153258074727722
0.0153373770262727
0.0153513840174853
0.0153649270934574
0.0153522145352065
0.0153513091664797
0.0153639923733843
0.0153640464682952
0.0153513864185952
0.0153365263760035
0.0153497055012306
0.0153643758832921
0.0153517429546511
0.015351138946123
0.0153638524667624
0.0153628234758419
0.0153504127924796
0.015350290196399
0.0153627074917709
0.0153803701599565
0.0153648453063753
0.0153652954380649
0.01538111744262
0.0153816839287813
0.0153660491578357
0.0153659280056096
0.0153815661900614
0.0153956380623379
0.0153798124815571
0.0154611234590502
0.0154916572773633
0.0155056032333057
0.0154735660283975
0.0154861285479726
0.0155190639698753
0.0155208072018541
0.0154881511838512
0.0157132463233473
0.0157903700556397
0.0158399400863386
0.0157585528666292
0.01586584655393
0.0159227036319395
0.0159657192384594
0.0159448583190839
0.0159824044615881
0.0159955920003845
0.0164853812905998
0.0164815634637605
0.0165045432010512
0.0165035117847672
0.016866658583064
0.0167947959839631
0.0173371733914844
0.017407087331835
0.0188638599561324
0.0186049175789718
0.0207693222054918
0.0477194782140312
0.0430598447653079
0.0203704644654566
0.0204323278160289
0.0464515374813048
0.0520317383789714
0.0208011613074032
0.0186677249122888
0.0188911526267825
0.0189732477931118
0.0187615775387943
0.0208944223831496
0.0572806969328102
0.05045412481005
0.0205409270094767
0.0207493851223027
0.0544764040967977
0.0494766625363184
0.0205061193206566
0.0209546979095821
0.0480869485094324
0.0540298937438162
0.02144379176471
0.0211920584977854
0.0552036320622069
0.0505411962608587
0.0239492390793512
0.0252341277985914
0.048719972485545
0.0416625985364073
0.0236018056285499
0.0234266029300002
0.0413309017560481
0.0385477802488486
0.0221992236631848
0.020497620223221
0.0371223693475123
0.0433449917913764
0.0211766387518788
0.0197480460609149
0.0405358933615629
0.0450239257611879
0.0190363152581165
0.0183762591582661
0.040498163333869
0.0365007829829785
0.0174059137637873
0.0169730887099265
0.0339684374620662
0.031054006503455
0.0168039636425454
0.0167018549613854
0.0284839733454616
0.026173335942257
0.0166198101003332
0.0162431082787673
0.0244482275526262
0.0229211506116173
0.0161949511568721
0.0162086388992422
0.0230218271528413
0.0242621035308173
0.0164406050107452
0.0172955829240884
0.0257074003212132
0.0273774418106814
0.017576763219223
0.0174153813458809
0.0281571435346816
0.0302008701242757
0.0179022256489521
0.0173715636835186
0.0298046839693152
0.0259280366054678
0.0166522092563612
0.0170605747528863
0.0256891314710537
0.0238402046098347
0.0162367273074192
0.0160002171741546
0.0221035264016896
0.0241949576054895
0.0165904227618026
0.0162780880623197
0.0216261687080143
0.0221121388955505
0.0168636017129479
0.0161249508320585
0.0207014292196718
0.0200641266416815
0.0161572911312215
0.0163426572405632
0.0209176335680078
0.021807989407842
0.0167749705599558
0.0168910925966357
0.0228774297660729
0.0227266052732173
0.016739542945757
0.0169352946575838
0.023364537924613
0.0244032921927214
0.0173143019308271
0.0175523091230094
0.0248746631153564
0.0247746780633092
0.0174298364877738
0.0179623323915717
0.0263515957544585
0.0256462056435461
0.0252007495393636
0.0171501349578894
0.0176996891239224
0.0183652602947116
0.017912886695027
0.0268314699447734
0.0271495735356862
0.027966719229689
0.0184752975372255
0.0187919145418294
0.0300356751262747
0.0292272183695861
0.0293225034157424
0.0189595042707804
0.019120545888375
0.0185240285093851
0.0180704561135045
0.0178104312939661
0.0183828617215325
0.0165071582990869
0.0162472468028507
0.0162315552664411
0.0164965607614316
0.0156213390324345
0.0155506919930077
0.0155851459837782
0.015653832344572
0.0156304087410639
0.0155704377884813
0.015390390178158
0.0154236207910272
0.0154167488365589
0.015385822642731
0.0154064146938172
0.0154374788892086
0.0153556971060582
0.0153371927912645
0.0153493953096414
0.01536498211225
0.0153792116716632
0.0153650962590175
0.0153639433358054
0.015378056085606
0.015377401495989
0.0153634472496021
0.0153523916729795
0.0153651646215236
0.0153810905843928
0.0153688069565068
0.0153681827709137
0.0153803980021446
0.0153791620030002
0.0153670163110777
0.0153671806413888
0.0153793129729269
0.0153950320915028
0.0153825537896746
0.0153664945044177
0.015379459040162
0.0153785693180869
0.0153655164844107
0.015364601467252
0.0153772931303087
0.0153771342079597
0.0153644621921945
0.015378725099589
0.0153943483155564
0.0153954203894288
0.0153793611456216
0.0153799261612124
0.0153958032353596
0.0154100809189729
0.0153936158647163
0.015393494323307
0.0154098362085823
0.015503407349406
0.0154728914627805
0.0154884440572581
0.015521016857819
0.0155349003001672
0.0155012807494782
0.0155037960929716
0.0155371038137801
0.0158023975062544
0.0157256576620121
0.0157806391670297
0.0158633396564553
0.0159489958051258
0.0158905702267709
0.0159153155086705
0.0159753353550803
0.0160249734632105
0.0160120491788694
0.0160419792890854
0.016054648655958
0.0166126005373911
0.016621559269396
0.0166365962638119
0.0166177303013785
0.0169515120615158
0.0168901269137212
0.0174537841944598
0.0175198042599496
0.0176536484512236
0.0175866647745441
0.0177316352615257
0.0177992404124595
0.0190778310199799
0.018878614786601
0.0210226680550995
0.0636271093143838
0.0552951081321862
0.0206846746237797
0.0210436117972297
0.06034881769553
0.0612108387152033
0.0219856705382691
0.0213426339998984
0.0615351325222212
0.0580049278152383
0.0243446471082103
0.0266154624346148
0.0616883859338123
0.0558131703026835
0.0269777086899477
0.0272336085575759
0.0525828490591813
0.0453382277001905
0.0250967175900481
0.024783973261385
0.044639027243358
0.0485631464275191
0.024728348519236
0.0234280983293981
0.0482155747543968
0.0522394431015216
0.0235861448543619
0.0216397200864822
0.0497242572775781
0.0446640552690068
0.0202911080690971
0.0198661624776193
0.0499814700844141
0.0448921620449725
0.0181271459786364
0.0176318051000491
0.0409106237900929
0.0372644084507489
0.017256305863153
0.0170463761575751
0.0347789816476278
0.0317546511453708
0.0168103017800894
0.0166370627071431
0.0290711501948467
0.026617646763577
0.016533703997669
0.0170868522090383
0.0259881950956524
0.0268325651332717
0.0176031172952365
0.0176947208157964
0.0284805521772041
0.030759637490185
0.0177944378158055
0.0179790056106339
0.033426276871705
0.0363963521003194
0.0181633475866132
0.0178683899351912
0.0312440563234316
0.0339196689911064
0.018480111613507
0.0179405260307932
0.0330801056816951
0.0285304186602022
0.0170738294939049
0.0178860068765253
0.0288453904325599
0.0313232672963603
0.0190759210683143
0.0185668284661922
0.0298719150586473
0.0268390720599243
0.0170115384570493
0.0174191026239135
0.0261257075555673
0.0285769755015008
0.0175271415629498
0.0173456705946999
0.026472108620621
0.0247241199560332
0.0172455261426658
0.0171705482681257
0.0231061061069462
0.0219089032082004
0.0164768926069422
0.0164068741923544
0.0215936467476616
0.0226974102710557
0.0170352386257057
0.0171248204195662
0.0249601550990658
0.0245673973509035
0.0170121278451691
0.0170047417748875
0.0244625112342616
0.0252789933475393
0.0174880651244357
0.0184824851035848
0.027387740294087
0.0270060899015617
0.0185069099680658
0.018413632280949
0.0276202717448638
0.0281440561857777
0.0188884252895248
0.019157375666524
0.0306824589570534
0.0332070392573997
0.0192743626339685
0.0190909727853651
0.0323572916781243
0.0314650512626739
0.032141949911037
0.0190778820000593
0.0196349240681151
0.0183113725206107
0.01796601425635
0.0163312413066011
0.0165841031983217
0.0165302462349574
0.0162900825087881
0.0163316256740462
0.0165371066125184
0.0156865881834449
0.015619090266966
0.0155928139132256
0.0156472581858502
0.0154495404692108
0.0154146614747899
0.0154274925041797
0.0154578469625369
0.0154725582721491
0.0154441827199963
0.0154355708421143
0.0154612226785118
0.0154491535980025
0.0154245669980118
0.015364959736001
0.0153792692210769
0.0153964532094338
0.015382743783115
0.015382426335462
0.0153958427826587
0.015394621547101
0.0153810796035271
0.0153799905456253
0.015393321981475
0.0154102893309313
0.0153966284690343
0.0153851565082246
0.0153978334101005
0.0153965353551644
0.0153839727677783
0.0153823879135223
0.0153948454957324
0.0154110655078565
0.0153978961787077
0.0153978204315497
0.0154111540237908
0.0153948429834169
0.0153811104934263
0.015379686936338
0.0153935008465018
0.0153919479952175
0.0153786009837023
0.0153784470753672
0.0153917271348848
0.0154084701902313
0.0153924132046894
0.0153932184562031
0.0154098685805555
0.0154246248943146
0.0154074114687271
0.0154076401023873
0.0154246791932519
0.0154243440477002
0.0154075059858459
0.0154848942176752
0.0155154205476123
0.0155366444124498
0.0155035345448341
0.0155168019647736
0.0155511333256744
0.0155538278269798
0.0155198417750515
0.0157384798140737
0.0158149794579797
0.0158867712504114
0.0158029125698067
0.0158252023156872
0.015910092632729
0.0160017620838852
0.0159399893138512
0.0159646414391228
0.0160282712666939
0.0160841048978133
0.0160711159029842
0.0161009652364027
0.016114109245084
0.0167070869518243
0.0167361963882288
0.0167473980405147
0.0167078342737901
0.0170423992129806
0.016991282933867
0.0170931256475102
0.0171381892386608
0.017236396334642
0.017196112006062
0.0178845165492126
0.0179523426594413
0.0191969516878163
0.0190112700526518
0.0211723111198577
0.070882887741179
0.0608207744508817
0.0208548538764166
0.0212801501016013
0.0673154567963732
0.0698878643554502
0.0224488901621915
0.0215375594090036
0.0686493713020686
0.0667145524055252
0.0241470538302787
0.0263175954318618
0.0713042241537429
0.0624434210436131
0.0268013548635374
0.0251366930668043
0.0516795589878177
0.0470384580190542
0.0250159709698381
0.0247192358873765
0.0460579587827252
0.049469413876739
0.024717698596962
0.0248719291398641
0.0549503667931261
0.0621442231745246
0.0252964801057704
0.023563546831316
0.0567804860738235
0.0635594260739142
0.0244818402808825
0.0228722561602107
0.061293329143321
0.0501969169026424
0.0210285885075929
0.0210625298379181
0.0555321848690337
0.049310359263519
0.0187962717085024
0.0181805118182741
0.0467322192992363
0.0421809419096603
0.0177164387435451
0.0173436236869182
0.0382379875466669
0.0398118161777654
0.0179665537128932
0.0176555941223013
0.0359324075203794
0.0324920249348613
0.0175182970331759
0.0174542821837366
0.0296091079018139
0.0173921466517998
0.0173351445886703
0.0174292422123083
0.0167022316260101
0.0156638975016004
0.0156137155776061
0.0170114219396276
0.0182753695700781
0.0308933648914846
0.0365331840748127
0.0182255913141944
0.0179719532518397
0.033674657892237
0.0308525887033915
0.0177394390274982
0.017779543724162
0.0301511130511298
0.0278623551376757
0.0172990150543675
0.0178572395480696
0.0294857514124616
0.0273512092700603
0.0175278283963205
0.0172757984515147
0.0255795217378638
0.0242154911195117
0.0171119849912235
0.0165839036591791
0.023296184613413
0.0245589172899079
0.0167672935915467
0.0170078310989784
0.0260782105175036
0.0279045854681803
0.0175238425307145
0.0173243618143636
0.0259939476718388
0.0243991336051653
0.0171786851424688
0.0171498105120686
0.0162113748402331
0.017041814689138
0.0245959917174226
0.023491413808738
0.0171622233858626
0.017054721383822
0.0172501887554298
0.0165337032493587
0.017439696622899
0.0271958197676224
0.0288595816793639
0.0180231044313509
0.0173474551697963
0.0176072050789606
0.0180430101050107
0.0326966400316574
0.0298721142378216
0.0176052074164072
0.0182227271085315
0.0320095292286767
0.0339740895548783
0.0191462727045017
0.0197493375226754
0.0310106506684628
0.031212377977997
0.0201323355261171