/*--------------------------------*- C++ -*----------------------------------*\
| =========                 |                                                 |
| \\      /  F ield         | OpenFOAM: The Open Source CFD Toolbox           |
|  \\    /   O peration     | Version:  2312                                  |
|   \\  /    A nd           | Website:  www.openfoam.com                      |
|    \\/     M anipulation  |                                                 |
\*---------------------------------------------------------------------------*/
FoamFile
{
    version     2.0;
    format      ascii;
    arch        "LSB;label=32;scalar=64";
    class       volScalarField;
    location    "100";
    object      p;
}
// * * * * * * * * * * * * * * * * * * * * * * * * * * * * * * * * * * * * * //

dimensions      [0 2 -2 0 0 0 0];

internalField   nonuniform List<scalar> 
209453
(
83653.3653689361
83668.6052960884
83690.2919282538
83667.3130207096
83652.8374789369
83641.2559754665
83631.3403001836
83618.9693818416
83623.8133245881
83631.8555626782
83631.3151291539
83628.5472813418
83628.545488009
83639.361796216
83638.8869438361
83647.6274797184
83651.484502504
83649.4058784031
83648.9055143709
83661.9227105833
83670.3017518414
83676.3152666887
83661.8386588408
83652.2726787155
83652.5112165533
83662.7251255589
83662.3008933373
83665.781401314
83672.4062989485
83670.7931710494
83665.9683763512
83669.6263028765
83670.8990458491
83669.9515959237
83668.7571775455
83667.1457364131
83672.7698561564
83679.4264912274
83666.9589911855
83666.2668485945
83679.9356673137
83667.0710491215
83661.8472243479
83666.9395390542
83686.2500680278
83627.8265854582
83635.4442227527
83610.3693340842
83582.4928882775
83589.8367439874
83606.2169289838
83602.9745207262
83578.6620540468
83668.2374661354
83676.6000243016
83636.3839128874
83626.5184777971
83620.4961066331
83620.7236444389
83621.2314446012
83620.8925246545
83619.8961912379
83621.2779216534
83615.9343429719
83615.8440681382
83609.9400139119
83608.3670494807
83590.6501332897
83606.0743518483
83623.4710155659
83619.4831964027
83638.2204631419
83675.1608402009
83669.762425088
83649.6183428117
83628.7060788714
83632.5702298932
83608.986251963
83597.6926349973
83604.8736452065
83611.3611856401
83615.7549430254
83614.7067813624
83615.525845652
83617.5130465111
83618.3007147782
83616.8479764485
83619.4594272973
83620.015624267
83622.4490346707
83622.54209065
83619.2464221667
83619.7247046962
83622.5150529848
83622.8050691622
83632.2169035082
83631.1820203434
83641.3141347302
83640.8879385008
83652.0162394098
83653.0333822673
83663.9922123527
83663.1013450166
83675.4309216248
83675.7267716256
83672.1804785769
83672.0472584034
83684.7671604401
83684.8992164762
83678.7917553087
83678.1351892304
83676.2310748861
83678.6066674442
83679.2687841087
83676.8070567429
83665.5085550462
83675.2409588903
83676.5699308524
83680.5894017698
83698.3683091331
83683.8682097615
83683.6336360751
83692.3915468444
83690.6227276745
83686.8166352852
83687.0623248231
83688.5041993025
83691.2439836259
83690.9868524073
83689.1696761679
83688.9836159338
83687.4283408886
83687.5176773087
83685.0706959713
83683.2426488458
83681.049826012
83680.6119107762
83668.627467447
83668.9010603321
83661.557795844
83660.3885479762
83655.0439331845
83656.0241203738
83654.001045137
83653.1802482911
83655.3977978655
83662.8016827995
83664.4521599528
83642.8663509856
83639.2796143582
83649.3731706871
83614.5545955563
83618.5364949373
83611.0496848623
83608.2412692867
83597.017721225
83606.1439336576
83616.8464964857
83625.3794807428
83645.5066003162
83619.835303524
83612.2432759286
83630.2299717623
83617.08297813
83613.465597886
83614.9179444579
83616.0635808437
83619.3990728048
83617.3650458687
83611.2906730133
83609.2968125695
83611.5706373102
83611.0409812286
83611.1505408937
83609.4793837269
83610.608652505
83610.6167080907
83613.0408078973
83621.7769982943
83607.5197955788
83605.6910291513
83616.0527028612
83610.2236475823
83607.8920215443
83608.3336026342
83608.9848007044
83610.73192094
83610.4288567933
83613.06968531
83613.1948466605
83615.4333167312
83615.4949158927
83616.1157874857
83616.097709923
83616.5533254211
83616.446222875
83613.3895380385
83613.6047151423
83613.7700278101
83613.5640602393
83613.9219960369
83614.1143037695
83614.9081164928
83614.7922870471
83615.9507856059
83616.2448850426
83616.2515337991
83616.045960934
83621.9742410104
83621.8548151045
83631.445673025
83632.1871780974
83639.2997968264
83639.5882063424
83640.5285134126
83640.1627634686
83650.3201844275
83650.9214108601
83663.0446340049
83662.4245638665
83677.2104462136
83677.4551764804
83695.3393399355
83695.0047680642
83689.4156767907
83690.0945064154
83701.744376921
83700.2889165251
83697.8319528503
83698.9943419212
83693.5525671364
83693.8001078011
83692.2557810124
83691.5978811084
83695.0130627028
83694.8488996629
83702.4831914691
83702.650147954
83698.2372555156
83697.2965832887
83694.2963771191
83696.8864981459
83694.7834456941
83688.043043433
83700.1996125085
83701.8498780996
83700.1181001822
83700.6584709849
83699.9855721427
83695.0366269615
83679.4505239527
83678.4936772323
83670.8732640579
83671.0208472836
83662.3171412911
83662.9981126822
83655.3559129573
83653.9720780815
83649.6469938247
83650.9904947674
83646.7726401749
83646.4900001986
83644.70439182
83645.1745949299
83643.5264554062
83640.4435214129
83633.7854729883
83635.7324104071
83626.4714724427
83627.0544508997
83614.93439129
83605.8153490599
83610.3708904437
83612.9162701106
83611.1788406271
83609.6484132752
83610.9588812717
83610.3437777729
83609.3613297622
83609.1923974332
83608.1712660942
83607.6009423587
83604.4344289495
83606.2639502493
83608.4757187433
83600.424419865
83600.3115975969
83604.3024327605
83603.6547917452
83603.1003269148
83605.6472446194
83605.6135175509
83607.9137040861
83607.9139166542
83610.3410335679
83610.2331283283
83612.2679528894
83612.5187500206
83609.608874952
83609.4535797797
83610.6954435189
83610.9216564035
83611.1021978247
83610.8502851661
83611.1613705967
83611.4401193506
83613.2625957311
83612.9743333164
83618.2159581338
83618.1076241
83627.7190815797
83628.5829358871
83635.2839677523
83635.5437904266
83638.1775963415
83637.9138241138
83648.6718311924
83649.2086223152
83650.3432826456
83649.8141076234
83663.0014159913
83663.7074105002
83680.3703620775
83680.1381275011
83701.5619965193
83701.6361832536
83720.1119178827
83719.2289424495
83714.7713262708
83715.7094737842
83709.962331528
83709.1250122973
83705.4460385423
83706.3297543542
83717.4919199061
83717.3739081979
83712.2369508071
83712.3598523805
83707.9315265581
83707.3031193836
83703.7853011651
83704.4935393888
83713.6841494893
83713.0553503962
83710.2714448
83710.8379816686
83707.0089687298
83704.6463690386
83702.3706590424
83705.9065693843
83714.2562739766
83714.7299496999
83713.9357676245
83714.1968824798
83704.7164785693
83709.505284382
83713.8192206763
83714.5359774106
83726.1252676973
83720.047497286
83717.9999048202
83718.6148112999
83722.0242571945
83720.581685095
83724.9016495574
83724.5979509282
83717.4602979838
83720.4126838313
83718.0254042693
83710.9532495599
83713.3798095154
83718.3523721337
83716.2835897185
83714.6944970336
83712.0311625751
83708.9371146388
83712.0615585216
83701.191189164
83717.7717143894
83711.4640670271
83696.1831085909
83686.1202107301
83678.4894889728
83684.6204353176
83667.2047788409
83664.8048216957
83664.0478944274
83663.8841110653
83658.8427242347
83659.327939554
83647.0944848846
83646.431591076
83644.7431007007
83646.4926197142
83644.8477185458
83643.0194857477
83640.821900607
83640.0459074837
83644.0100319297
83638.3695634471
83638.4088871667
83642.9341760897
83634.9256546745
83634.1498176706
83627.8817806619
83612.1622609338
83618.5041755474
83621.4123962292
83616.8824629992
83606.2426020626
83610.4590482561
83612.8768109484
83610.386489948
83611.5303705318
83606.5280695831
83606.093790657
83608.3624514019
83609.3023085292
83605.3375351571
83605.2855920718
83605.1814713373
83604.8627933095
83602.7739051275
83602.9784321502
83600.5727462708
83596.9267354702
83600.3604385726
83600.9233250181
83603.0159671608
83602.930848464
83604.9385440145
83605.0068916777
83607.296617275
83607.3184282495
83604.004609117
83604.440444232
83607.4102174863
83607.1009344961
83608.4386149958
83608.5760469285
83608.8971331086
83608.8377941574
83609.429660654
83608.9679236154
83607.8355311076
83609.0092787853
83603.545123668
83603.9736041381
83607.3515604548
83606.9191781663
83607.0770821086
83607.7582282605
83611.4179443789
83611.5114977185
83621.7181239414
83621.2427586577
83627.0013573617
83626.5904490325
83631.9244869122
83632.1670811287
83642.1380926592
83641.4290700815
83645.6317172703
83646.2274086019
83660.4236812305
83659.718711852
83662.5568665762
83663.2542336297
83681.5284376655
83681.3401855432
83705.9170715013
83705.7638683422
83730.3879816895
83729.8204094175
83725.4626306321
83726.3482715988
83744.0239239543
83744.0120510235
83736.9223106124
83736.933793501
83729.7995341719
83729.7085057794
83723.3364451714
83723.4050342378
83736.8639661053
83737.2598689981
83729.7375568212
83729.3145011546
83724.1945804325
83724.36912883
83718.2757471026
83718.418340587
83729.2798653136
83729.2921578047
83723.3001116174
83723.4752167514
83719.1336865596
83719.1393012921
83720.1411111448
83716.4180540158
83707.3627086219
83721.5443627791
83713.6885874163
83698.9900470551
83686.4763635734
83670.462984037
83645.5489741927
83615.7788516401
83588.5533377343
83558.7262156503
83541.0397268117
83542.6961275181
83573.3564357447
83574.538978097
83591.1492891217
83588.3478655474
83600.7192098925
83601.0851751611
83595.2575540041
83593.5384796455
83600.9352589902
83601.7459910169
83598.1446002383
83597.3504181467
83603.2014134845
83602.6856115727
83600.8260506709
83601.6876991395
83601.7330947127
83601.2964879479
83597.4511393726
83598.3227395947
83597.3253441007
83591.952661838
83594.0605582914
83597.7163394537
83598.7361717608
83599.7568785763
83601.4259280176
83592.2101692271
83598.2138599737
83599.494644515
83602.2126228361
83601.9915425214
83600.6175959237
83600.8110234858
83600.8923932511
83600.6579185768
83601.5993623075
83601.248605657
83600.6412980406
83599.7551849054
83598.4799009565
83595.5736760846
83598.8547575692
83597.6162242344
83596.0192738615
83594.5512413635
83607.0208925263
83601.7025995959
83599.1206505694
83602.5608928928
83603.7032592542
83605.8258556603
83603.7603335476
83607.7737534345
83608.437314733
83619.3408722327
83650.983262656
83648.2749888071
83611.5449512825
83588.6561258483
83562.5311937967
83574.9965915304
83592.3515224736
83596.3756952982
83591.5304487462
83608.914217675
83605.1520208895
83613.2254471796
83616.9393108793
83647.1677592522
83627.9988848758
83618.6971176657
83652.7250798741
83595.3846173867
83598.3909596642
83590.7314966098
83584.6838194678
83575.9920044349
83591.3623151949
83590.1946192645
83565.6380529609
83579.0568838119
83591.8317751492
83599.566454496
83595.8772497712
83600.7716519891
83602.4662210403
83603.720603396
83601.3259130669
83605.1240135543
83606.128410228
83605.356094682
83605.0693188789
83601.8307989737
83602.9964648271
83601.1449883451
83600.251330378
83577.3370393842
83591.7527704152
83599.1697078697
83608.8617909286
83607.8607163048
83593.6114323919
83600.5690918999
83612.5898888547
83620.4910235516
83633.1399781462
83620.2249088255
83619.2334487176
83620.2055148209
83618.5614320917
83614.6031641279
83615.6230924592
83622.2194677329
83621.5775613538
83628.9030702168
83630.3065405087
83635.3057921429
83634.2332862194
83644.8707618635
83645.8974377852
83655.426614818
83654.806823406
83672.5516850753
83672.8939078501
83679.1379241128
83678.8179277108
83704.9825753988
83704.8457017583
83734.7877329291
83734.505842685
83732.6902115572
83733.1416894609
83755.8375048808
83756.3051590547
83751.2800507018
83751.0173768407
83771.7306083509
83772.5820445275
83763.0890220023
83762.2450465449
83753.7311626346
83754.3459492482
83745.0187805724
83744.463490566
83753.5054573725
83754.601466782
83760.0409239612
83760.1954395216
83755.1133289314
83754.9919083496
83749.9099718805
83750.0898150076
83745.4943691348
83745.3116435221
83741.9795381833
83742.1076024786
83738.9342206909
83738.8318336853
83736.1220682714
83736.2438254539
83732.0832793078
83732.2522182653
83732.0567397229
83731.4731367593
83735.2143537378
83735.9249063702
83737.7369359332
83736.7395333194
83740.2294956035
83741.2610760087
83744.5955627501
83743.4668753525
83750.2603703436
83751.1346930657
83755.6797530957
83753.8909012564
83769.5785019566
83769.3519362641
83766.2622171717
83764.6940962178
83763.2603269842
83760.3597486808
83752.8638643012
83748.3955233564
83741.7788476009
83727.0154327709
83705.3784070139
83678.0871937355
83640.5585684622
83597.9125918568
83567.5239265615
83550.1656344512
83533.2460163788
83517.5985580412
83514.3884581923
83556.8566934698
83560.105786358
83582.7866278031
83580.0795896414
83573.0370384342
83574.771994371
83589.8988185488
83588.2195195588
83585.3004601468
83586.0090348135
83595.4557115566
83595.5037892248
83594.0169788903
83594.3845354719
83594.5902071429
83592.8942825618
83591.2698651621
83595.1392278907
83597.6287694081
83595.1276903504
83592.5671881403
83595.0004026196
83596.9989425254
83597.6716009771
83591.0677407511
83598.5138220806
83609.158078001
83638.5024612541
83589.6571595045
83602.2119230374
83605.4448688244
83580.211031934
83656.2850229552
83632.7062923878
83631.3321088878
83651.8774764907
83639.2798046276
83634.0717161513
83627.3360979582
83626.8475513965
83622.4321083194
83623.5191324702
83627.5709596024
83626.5058414
83637.1983333336
83638.1308891943
83645.2464391477
83644.5153800576
83658.4966903251
83659.1941792465
83677.22838248
83677.3951762436
83697.1042199201
83696.8531947529
83730.9417272548
83731.433087859
83733.7684438963
83733.7188606736
83759.8343412516
83761.0232036276
83760.6833804392
83759.8255869491
83784.9543058532
83786.3617888635
83779.9802572862
83778.8350970586
83794.5149442371
83795.7590457257
83803.9589965443
83804.1917554332
83798.653213303
83798.4484011629
83792.2358678393
83792.5226690117
83786.3127707971
83785.9957608137
83782.0400901185
83782.2449327526
83776.2837054959
83776.1382358406
83769.9345944804
83770.1685554942
83764.373195029
83764.1647248461
83773.3164407699
83773.5425076246
83768.7912647881
83768.6164984084
83762.6817196703
83762.8918686658
83758.2136289786
83758.0040052985
83752.6364151947
83752.9445130579
83749.0285446903
83748.7767032248
83744.3809313287
83744.6778195376
83741.1585358829
83741.0554241271
83738.5447042766
83738.3646308134
83742.1434702551
83742.3035797955
83738.5262887466
83738.4520785908
83732.3447438828
83732.4983738952
83729.8950361277
83730.5314140082
83729.1126517052
83728.1781808774
83727.601528931
83727.95066308
83726.3331590833
83729.3348231842
83735.3962997479
83733.2687373222
83727.0864484288
83727.0177595889
83710.296871781
83717.5066122209
83730.5631837034
83731.0667468022
83727.4771228714
83725.7522752922
83713.9338301768
83717.1520375784
83708.9360920953
83705.0613364618
83691.2126768916
83697.357232849
83682.0586552777
83678.7808555923
83662.2464749317
83660.6870681456
83645.0385028653
83643.7244940483
83647.0844749523
83645.8603733818
83647.6868552064
83647.8210369223
83630.0727152137
83630.068049373
83632.1392761248
83632.1965833508
83632.0686430884
83632.1247585876
83633.4761048507
83633.1446685641
83627.5402349224
83629.825079115
83641.6317467439
83634.8538838011
83629.4390100874
83639.3602358991
83623.5761673115
83620.6615942903
83629.7567035694
83631.2885697826
83626.7006745568
83620.5923599136
83616.0004349554
83627.1715137268
83596.3736554857
83601.4506623791
83610.0475119693
83613.2515154598
83607.687456306
83601.7565629099
83595.7003829261
83590.4458464127
83584.8160481905
83585.2086870728
83584.4222782178
83588.0964516212
83590.2948939761
83581.236211834
83592.6521928514
83590.7099419986
83595.7478052257
83601.220772896
83600.1745535488
83600.3834178651
83605.3409109861
83602.0839908486
83617.6222089571
83614.9598209422
83621.5431198051
83635.3527128272
83636.9247728835
83622.6086356085
83622.6927697995
83623.7379887949
83627.2582072398
83628.5571148507
83616.5238444573
83617.5768666252
83617.4542657669
83614.7306658251
83627.0085576638
83628.5960095539
83627.3354592457
83626.1463225406
83653.4512063374
83653.4506114973
83671.6643518183
83672.1876902103
83688.9475719186
83687.9834277329
83708.0638597003
83708.8893260002
83720.7714846601
83719.9668581916
83744.0426145861
83746.0109184055
83757.1359294208
83755.6611418098
83781.1397218714
83782.9557222278
83787.7718505044
83786.0446694327
83807.1846671343
83808.6545706984
83817.3678418008
83817.5108681129
83815.5464357245
83815.314617164
83811.1725825714
83811.4976403906
83806.9267417884
83806.5380719125
83818.8139918302
83818.7758859052
83815.2948909931
83815.37969096
83808.9680092097
83808.9436271922
83803.6688936059
83803.6061264056
83796.7991139521
83796.9634871403
83792.1680789188
83792.0646745471
83785.2563486958
83785.3806693687
83779.9723491991
83779.775256914
83788.1737273044
83788.2945275321
83781.7724809642
83781.4932446827
83776.3561119955
83776.5569442294
83770.5056031823
83770.1786088833
83765.0987008063
83765.3161957814
83759.7996936089
83759.4564145566
83754.954863537
83755.2817469886
83750.6529793338
83750.2716758543
83746.2345629998
83746.2398026635
83751.4093805838
83751.361627673
83748.2338167076
83748.1079170045
83752.4383901598
83752.5247174094
83749.0227202247
83749.1017184462
83743.4578896954
83742.9704676834
83738.7232042917
83740.0531919016
83739.1669250153
83738.3885933372
83738.313058718
83737.8552245362
83745.1479193341
83744.0661849926
83745.3102701174
83746.761435127
83749.0589871377
83747.9022118225
83756.1496824078
83757.1516603722
83753.7923046476
83751.7647797048
83750.2804472627
83752.1688962016
83747.3665217212
83747.0529888165
83740.2837435004
83739.9619928993
83735.2152367119
83735.4323608706
83744.59696162
83743.0987433101
83740.4125488859
83745.1936064925
83738.4986718697
83734.1798035567
83723.4169759305
83726.8714060332
83713.3851077176
83709.1617870657
83695.7347832569
83702.3468880681
83686.9541933724
83680.74376285
83667.7641380923
83677.618795359
83663.0888758971
83664.4280756646
83629.0961225564
83629.9775686484
83597.6838595889
83596.455341403
83615.0264989931
83615.9317604214
83624.8085876651
83624.9113741356
83609.7914065171
83609.5922955785
83615.2234141807
83616.9986197931
83621.5101761849
83621.0219657443
83622.5802322251
83623.1524786421
83612.4128940874
83608.0280255612
83625.3798412109
83621.4495053503
83613.8220873967
83624.1997433349
83587.3137556489
83601.5145949387
83586.9523430856
83580.9935235568
83567.5062151649
83564.4058757219
83545.1531518628
83551.5580047467
83502.1410649506
83505.3979384169
83470.1001600815
83468.4285042198
83443.2417516857
83442.7548910584
83410.7225651382
83416.8578268153
83492.9309720891
83493.7571557592
83546.5992535921
83543.893871821
83540.1702474774
83538.718518294
83569.0699577633
83568.6474784515
83559.8903661548
83565.2076022325
83576.4730031369
83564.5319322935
83585.102833795
83585.842931664
83577.206032755
83558.5600196845
83576.3345353742
83576.5706186261
83579.6028347755
83583.594514768
83593.9980061271
83588.7523164751
83595.7047695932
83601.0065565135
83603.2876855857
83600.6266698245
83606.5158990089
83614.4902637328
83618.5889041754
83609.8883574538
83600.4188260497
83597.8447918058
83605.0323459613
83608.3831803639
83611.5172115313
83608.6923119605
83599.4824573599
83601.9411474697
83597.4064161981
83593.0134809459
83586.6686634139
83591.7786879545
83583.4024891423
83581.1629139577
83587.4882473609
83589.1104338718
83591.1048138947
83589.6597734701
83593.9202056386
83594.7143402736
83605.0283568002
83603.590144664
83609.5389970306
83610.574358907
83632.0935564432
83631.9597273143
83649.7948746745
83649.6297324986
83650.6776696741
83651.3457037344
83677.7273265799
83676.8829490845
83703.230706627
83705.2587683052
83727.9052424918
83725.8498408394
83744.6170906456
83746.5701677225
83770.2620884265
83768.4454627122
83790.1585963055
83791.3327604306
83796.3326482381
83796.2486030567
83806.505838557
83806.4735626998
83811.5249568926
83811.7493872314
83814.6621238418
83814.4047187625
83826.4626354305
83825.9494323395
83828.3088814806
83828.7429449713
83826.5768007635
83826.3303024964
83823.7391080374
83823.9528965726
83833.454249536
83832.8580584289
83827.9843634814
83828.3341012404
83824.5863252183
83824.3072183851
83818.1471412172
83818.3013361843
83812.7543165295
83812.7013116015
83805.9306833206
83805.874244089
83800.7289949664
83800.8111612444
83794.1016649896
83793.9180154509
83801.6683830787
83801.6574023406
83795.6767315874
83795.6898899812
83789.1774855803
83789.2295640112
83783.6676083905
83783.6498540135
83777.4800356043
83777.611909744
83771.9226871519
83771.8671558313
83766.0892852959
83766.2403240567
83761.0854800183
83760.9015371173
83755.7212435903
83756.1075774418
83761.8311451775
83761.5547296175
83756.8454737656
83756.7986561982
83762.4101451182
83762.3820439454
83759.0191116959
83758.8550991549
83763.3571464444
83763.447452616
83759.8938117819
83759.961397661
83754.043684919
83753.5141345918
83762.5232983336
83763.0906908334
83770.9823361008
83770.5055409674
83763.5359072796
83764.4757269943
83760.4604544828
83758.1846014084
83756.6235504075
83758.856809281
83753.8679154389
83752.9311391678
83748.399631744
83748.1720556218
83742.6304231998
83743.3394492962
83732.7394706835
83732.8507235804
83727.2893405831
83731.7926201561
83727.3415163392
83720.3653324004
83721.6029230032
83720.6695288994
83709.0931581879
83708.1559507217
83693.8059825541
83702.8180139182
83681.0753220762
83681.971078595
83683.687692023
83682.6693123578
83666.4752390671
83676.4367682707
83651.6786239491
83648.6151815188
83608.0524017147
83608.8363763574
83568.4176819277
83570.3517799632
83543.5496551527
83540.6168432955
83572.0035619694
83573.3017932502
83595.3290959076
83594.9095859769
83570.2944667237
83571.1266451366
83592.3357327236
83590.7214546954
83600.5509535539
83595.1796734521
83610.504301611
83609.4356986773
83599.7585037725
83602.225323764
83583.9451656138
83588.6172389998
83578.8875018331
83587.0667532721
83564.0382521553
83559.976633863
83527.6242741806
83524.7301864686
83502.056284054
83499.5212687706
83477.6191110692
83481.9800178133
83426.2429293718
83428.2402988115
83383.4515293281
83384.6303425902
83358.2975730601
83348.9503484237
83316.2407954563
83333.6471150566
83326.3705750513
83307.329730306
83369.6443991804
83366.492638463
83469.4199057239
83470.8519875532
83474.7526966248
83469.0603281467
83460.6922513386
83465.116899325
83508.2646794115
83510.3826716168
83551.8116548627
83541.2754684549
83549.2491428775
83547.3909483443
83564.1232730647
83555.7086339858
83564.1337700597
83563.8235474039
83562.3230815339
83557.5563100575
83546.5253551569
83553.0829310942
83550.7170569468
83552.5451313435
83564.1844923179
83563.7563324104
83578.6897397509
83575.8833712031
83582.4941086701
83583.930785899
83595.944649706
83592.3073551584
83588.337291165
83574.6559328158
83562.0696300826
83575.9761499514
83577.2631704822
83577.4051948148
83566.683452784
83565.5632416772
83568.6534560316
83568.610840601
83571.3627732663
83571.8006879226
83574.6488097626
83573.6089269209
83585.0439278314
83585.7518274507
83601.2985705614
83601.0478801124
83624.9629079135
83624.8930376532
83616.1855445832
83616.3044081388
83648.5806746873
83648.1579779298
83680.5653412493
83681.5679377186
83717.7078243984
83716.1510837409
83730.6178493613
83730.4234907609
83726.4424436817
83726.2588338657
83748.1920008293
83748.6777869575
83765.2685100069
83765.0482016023
83782.3862194142
83782.635158297
83787.685303646
83786.078243161
83800.9350250712
83802.1176829373
83815.3518371047
83814.2280554734
83821.6040714072
83822.2483810131
83828.3649563665
83826.4986500687
83832.930926954
83834.3812585633
83837.604513297
83836.5325469915
83835.2507579022
83836.0271476604
83840.5665990453
83839.4501639872
83837.7972656204
83838.6665259862
83834.3711425305
83833.7835038107
83830.4136781162
83830.8926324294
83825.1005173509
83824.8028424843
83819.6208512914
83819.8672442911
83813.4867963766
83813.3638541282
83808.1162082604
83808.2109403855
83814.4128601181
83814.2464040049
83808.2226719189
83808.3030212998
83802.5526209961
83802.483836949
83796.3052404019
83796.311761911
83790.5126259629
83790.5237049609
83784.4077137934
83784.3514455737
83778.4803184218
83778.5488130892
83772.7294642534
83772.5967143849
83767.0736879215
83767.1940136767
83773.1785927666
83773.0345081158
83767.2185418608
83767.5462209551
83773.2469110694
83773.0100763313
83768.0251049402
83767.9444258362
83773.4254493808
83773.4144048777
83769.82932652
83769.5856680881
83773.7399518129
83773.8857064931
83769.8769097147
83769.7624877745
83778.4575725956
83778.8028196584
83786.2298743693
83785.6748008111
83777.5634159054
83777.1748659555
83769.5288447329
83770.4790605246
83765.9505354289
83763.5929251044
83761.8086360826
83764.1780548441
83758.9782408054
83757.5678409774
83752.1187377397
83752.5915612037
83746.8445353383
83746.890297246
83739.3564271452
83738.1157745518
83729.4986209751
83731.3852772133
83719.3578279303
83719.8400335409
83707.5359676535
83705.3702189808
83709.0949000004
83707.3684867014
83695.601835967
83696.0909753228
83694.9141972419
83695.7356978416
83693.760600911
83692.9043336456
83695.9589338767
83693.4196389005
83677.6639640843
83683.1575485059
83661.8501909456
83666.6681023611
83630.3852125686
83628.0646242833
83579.1771461884
83577.31553764
83529.331749172
83533.3860562649
83504.5365571227
83499.2935022427
83462.08053656
83466.8539054854
83509.3585691273
83507.138671907
83542.4803912892
83543.5299647987
83515.8411641656
83514.6649937323
83543.9189891506
83544.5650502398
83574.5461981802
83571.3648100148
83588.4448976458
83593.7738486621
83581.9371598037
83568.1652362881
83539.2600781947
83494.4501259713
83448.0896458206
83395.1852110512
83350.7215479164
83327.0108892506
83325.0568833338
83308.4426464993
83306.1994012672
83363.4035852996
83361.2342570068
83423.8190043236
83421.4778099364
83411.2658606811
83410.1618093691
83403.1333159567
83404.0998577753
83396.7058469459
83395.6410924697
83456.8055024625
83458.7115348238
83507.5641436145
83508.0147907328
83547.3719222405
83541.9637047042
83541.4938779485
83542.4572174008
83511.1149859137
83508.5549562345
83461.5548776566
83460.5825034853
83458.2201286993
83460.0154962669
83505.2153385861
83506.4053780561
83545.7910585545
83538.534825963
83538.9409517029
83540.6688620627
83515.3316341583
83521.5053102267
83541.8628839202
83542.7534054669
83510.4516428142
83470.8920529301
83472.763220781
83433.8007917977
83440.1725103745
83374.1530420768
83376.9666983198
83420.0319060629
83356.8612466447
83350.6636035537
83351.1112125448
83336.2030411272
83334.4999103205
83318.241349293
83320.6479378187
83310.5187464024
83309.456412982
83318.4676076019
83318.8603921883
83316.1368927956
83313.1618381447
83311.9996177657
83317.7487110083
83312.558556318
83309.4779954996
83308.5782482343
83314.3915686199
83288.3325111621
83297.1225299915
83297.1862910425
83284.726915274
83294.5219565152
83299.196808413
83304.636900714
83303.7219621646
83311.7270238375
83311.8169280498
83324.0856315346
83324.3053519174
83328.0422790202
83332.2410087645
83333.547749197
83329.6708397505
83332.1781902364
83334.0652328653
83364.3109889815
83365.0263363387
83373.8911758665
83373.4755900739
83384.8078390625
83385.0028300722
83399.9026281425
83399.3559812017
83415.4098535108
83416.1841257151
83433.013504358
83431.9795849705
83447.6156304354
83448.8376298795
83463.0186769602
83461.7142884145
83473.0857118801
83474.2577997696
83483.9757329448
83483.2952714568
83492.4576544654
83492.2437013809
83505.6485241211
83506.6818648706
83528.3888252388
83526.3695366576
83566.3593216323
83568.5752926281
83628.6937435116
83627.8160670073
83698.9303128811
83698.3096174384
83757.7087140184
83759.385158075
83793.3167866245
83791.4931560143
83808.1980312903
83809.7574349565
83817.7621445073
83816.2607115749
83821.7934248615
83823.3295420147
83826.2309710612
83824.8579946016
83827.4439586943
83828.6219533572
83828.6262169786
83827.655676735
83827.0388505773
83827.8585741643
83825.2026355438
83824.6801534717
83821.9890073778
83822.3530450226
83818.0808175378
83817.7767850564
83813.2676507102
83813.4823860021
83808.1302229269
83808.042012424
83802.6064323486
83802.6566742562
83796.754397163
83796.7324616422
83790.8214824189
83790.7807679002
83784.7639145529
83784.8494925531
83779.0033853961
83778.9228649901
83784.5502618123
83784.6173381102
83778.7568660906
83778.4829835974
83783.9701740912
83784.1496642225
83778.6688427083
83778.7844534972
83783.8187434376
83783.7810567468
83779.6031037267
83779.9040737681
83783.4389524748
83783.2349753099
83788.4973029449
83788.8368698559
83791.5598434575
83791.3081299794
83795.5923940928
83795.9326117673
83797.4924400178
83797.1879537646
83790.7251394845
83791.5677721095
83782.0197029297
83782.2447596769
83774.8647284185
83774.0397177295
83767.8147532541
83769.6588224114
83767.2532167655
83765.7737386494
83761.7824405467
83762.8639929729
83756.1637909899
83755.8418185895
83749.9160721492
83750.2537244443
83741.2001035367
83741.5703602794
83730.6779744514
83730.4732990836
83720.6666399766
83719.6124397977
83706.7053984201
83707.8185545629
83707.5235592612
83707.4381923646
83704.9889418341
83704.0933779936
83687.1121540434
83689.0637028674
83684.189888594
83680.294462681
83665.0576317382
83668.7883299261
83668.5648880915
83668.8907901561
83649.7617099262
83647.7276800103
83617.9884959695
83622.7547055458
83580.0721016034
83574.8913131777
83536.3026247336
83528.2235820713
83473.8653811209
83481.0415995697
83454.7875032091
83446.4132975465
83407.6306850794
83415.8817862477
83388.0321572706
83382.0525188351
83433.2451767776
83437.0992825184
83478.867517818
83476.7441969416
83458.6974587345
83457.4553169909
83423.4865106758
83417.9904725339
83391.8330906406
83398.2064528047
83333.4570315512
83330.1356561621