/*--------------------------------*- C++ -*----------------------------------*\
| =========                 |                                                 |
| \\      /  F ield         | OpenFOAM: The Open Source CFD Toolbox           |
|  \\    /   O peration     | Version:  2312                                  |
|   \\  /    A nd           | Website:  www.openfoam.com                      |
|    \\/     M anipulation  |                                                 |
\*---------------------------------------------------------------------------*/
FoamFile
{
    version     2.0;
    format      ascii;
    arch        "LSB;label=32;scalar=64";
    class       volScalarField;
    location    "2000";
    object      k;
}
// * * * * * * * * * * * * * * * * * * * * * * * * * * * * * * * * * * * * * //

dimensions      [0 2 -2 0 0 0 0];

internalField   nonuniform List<scalar> 
209453
(
0.0158045281220032
0.0168268951329836
0.0223829634817544
0.0212619987046092
0.0165572934750208
0.0164654092616165
0.0208298792317421
0.0201788165642768
0.0197705940632321
0.015790700715716
0.0160113924762275
0.0155311015788247
0.0153832964572762
0.0154602191994323
0.0155981070010039
0.0161721211821583
0.021126121605258
0.0208375770138853
0.0158860325404461
0.0159748308674068
0.0222449313624822
0.0223608916094806
0.0162940702191673
0.0156829785728041
0.0155348273955
0.0156197306955354
0.0157715988101776
0.0165424114281961
0.0236469197123727
0.0235491449638514
0.0161769131781113
0.0167388936562475
0.0247210322419778
0.0249202498710744
0.0171696941306236
0.0173109926820037
0.0253206999381601
0.0238003411875662
0.0169737895747599
0.0171461248083891
0.0234346345336909
0.0226891679165802
0.0171517198749512
0.0169901448594715
0.0210298732733156
0.0196510482529903
0.0165794430410729
0.0160329594528125
0.0186255174978551
0.0171719251157596
0.0155530635905103
0.0152644639740082
0.0163347259756594
0.0157512188278484
0.0153141787005815
0.0150262949675543
0.0150622847484451
0.0150494537602357
0.0150148248286097
0.0150111328428616
0.0150081606974032
0.0150231966210161
0.0150384022002575
0.0150745648820825
0.0150476933804928
0.015225954834192
0.0163415765280081
0.0163916076879521
0.0152584577973912
0.0150607484415027
0.0150872174335968
0.0156036962279248
0.0157018213192827
0.015272656478249
0.0152904935606016
0.0150252626093816
0.0150264926742375
0.0155448843323189
0.0171624354449003
0.0169934053638556
0.0154243608413649
0.0151092532797153
0.0151671317116912
0.0151829923289706
0.0151177788617379
0.0154491752450132
0.0156441001003186
0.0156660655518541
0.0154657732747738
0.0153237836531588
0.0154462227780287
0.0152039268775285
0.0151313519167042
0.0150871369533658
0.0151274083016323
0.0152115168837837
0.0151446102477005
0.0152010770680875
0.0152673391490606
0.0153158773108445
0.0152605545662017
0.0153292499263852
0.0153914440016419
0.0155298885741793
0.0154185469049612
0.0157800706345971
0.0160054963821973
0.0163350054831336
0.0161716763125855
0.0173919964086731
0.0262352351638287
0.0263027720352514
0.0176853929892619
0.0177998330237273
0.0267305254104261
0.0258503939490309
0.0174966465783872
0.0177577344294984
0.0267363079936559
0.0276181427063928
0.0177819164294062
0.0178449860501604
0.0273444574720237
0.027806305532445
0.0177381943768471
0.0177953906942835
0.0280173687501769
0.030704685534834
0.0193206438493267
0.0188944405760177
0.029778199455658
0.0290361184139279
0.018328113034365
0.0185391404572651
0.0307737932262064
0.0299223769218439
0.0178318907569303
0.0174058883738192
0.0269014101579085
0.0246791596202356
0.0172484816978374
0.0168035969521515
0.0238086280139765
0.0221855003862368
0.0166954456884523
0.0165815122290105
0.0207669607712251
0.0195442175179376
0.0163203346944203
0.0162470737637385
0.0194023052872055
0.0184879007094023
0.016017830646964
0.0155546073331579
0.0172471357538644
0.0164286425040208
0.0152819631978983
0.0150548209727061
0.0150200964979148
0.0153218679275575
0.0158280078160649
0.015836426450159
0.015286989549574
0.0150116239707171
0.0150342855930479
0.0150180186065505
0.0150078735858004
0.0150132620789901
0.0150342592707021
0.0150387192184366
0.0151489669948393
0.0150953506845878
0.0151871184554996
0.0164385911653711
0.0164407599612121
0.015116837821381
0.0150164052420517
0.0150045171441225
0.0152883782972398
0.0158302088230421
0.015909633792695
0.0153437152597303
0.0150013324171773
0.0150126119359755
0.0150085742362318
0.0150047161821802
0.0150025575978751
0.0150049861955562
0.0150085784574469
0.0150037909165249
0.0150053377909965
0.0150157583205167
0.0150105744566429
0.0150050141671912
0.0150033181902917
0.0150043878983185
0.0150016737479082
0.0150013662381886
0.0150032453013683
0.015004382221344
0.0150087713514562
0.0150060922370293
0.0150074521889022
0.015016818057462
0.01506308617159
0.0150326963879958
0.0150197835541804
0.0150292926439971
0.0150756850335883
0.0150560757977677
0.0150821196484793
0.0150997923648339
0.0151326427141296
0.0151177983547181
0.0151571673435735
0.0151923344202649
0.0152353380399495
0.0151997300665279
0.0152430856573313
0.0152811507183818
0.0153340550999211
0.015290927898275
0.0153446603951822
0.0153872122898611
0.0156681562009707
0.0155510156483715
0.0156315206067621
0.0157299802186296
0.0163814553661141
0.0162298703479063
0.0162307849467607
0.0163738177955044
0.0176250259628793
0.0177192250234354
0.0180745298532418
0.0177922298972101
0.0177325716197412
0.0179606912539807
0.0192929415015458
0.032191421406623
0.0312277542133106
0.0189170977128304
0.018399813982895
0.0308675151167822
0.03237899116942
0.0185780676700924
0.0202424998912501
0.0344459365301468
0.0342213930457739
0.0196413460024028
0.0184323689051629
0.0310361285436176
0.0280326907977333
0.0173034638065319
0.0169411086347372
0.0256626534871352
0.0253262203829904
0.0164360202893992
0.0163862638917088
0.0236286496704555
0.022141891305423
0.0163739958465516
0.0163751762790381
0.0207218305837611
0.0211355811184519
0.0164333556043822
0.0163604143664651
0.0194959156013924
0.0192716294929306
0.016093406195844
0.0157615116948443
0.0184038405448842
0.0172328641374189
0.0154241966609525
0.0152511916817192
0.0172105482398539
0.0174151784535943
0.0153793518131521
0.0151596440525104
0.0165732338273488
0.0166609582168248
0.0151422721477542
0.0150112278865459
0.0150038399634876
0.0153738831126447
0.0159613297594509
0.015902302786102
0.0153415417298725
0.0150023055605034
0.0150088644170561
0.0150059517155761
0.01500262557635
0.0150025890585095
0.0150062238210732
0.0150063753315528
0.0150024536034626
0.015002439618787
0.0150064966807628
0.0150067904930717
0.0150017084769866
0.0150009396341308
0.0150008475490341
0.0150046455959265
0.0150051350049499
0.0150150555957386
0.0150127557840221
0.0150306598858076
0.0150398424303801
0.0150868301608556
0.0150688313660186
0.015093910906116
0.015106858330367
0.0151362612995584
0.0151272408319011
0.0151143464141645
0.0151248678791295
0.0151584698606574
0.0151486488947635
0.0151545590835435
0.0151692117198938
0.0152067809713946
0.0151911754762826
0.0152284978059861
0.0152451292051159
0.0152819687711484
0.0152656836201225
0.0152855008510267
0.0153022235110773
0.0154079080400137
0.015366439688066
0.0153744782251278
0.0154171622784101
0.0156993731647942
0.0155876120011702
0.015626746847434
0.015732559591076
0.0157844314839263
0.0156964265588387
0.0162984782807288
0.0164415998190383
0.0164311313916712
0.0162887229673945
0.0164806730286092
0.0165941563474196
0.0178443375142989
0.0180984040296766
0.0194810325675316
0.0355307897187509
0.0335309735183701
0.0191756359717793
0.0199661668271184
0.0207751629819395
0.0382720461417078
0.0355829380561196
0.0340177189429226
0.0190936254469155
0.0197494401274935
0.0360563581094624
0.0386440227710803
0.0429797099637755
0.0215330684521628
0.0204052196116556
0.0193004397516158
0.0188097413910038
0.0188429070324789
0.0193072160423184
0.0204947847938233
0.0214575254741587
0.0457097447071247
0.0410169812153749
0.043217516590619
0.0205630954816681
0.0207389169391801
0.0397915396140524
0.0397100055179773
0.0207780947759525
0.0207068235668376
0.0366051671823475
0.0204442701818845
0.018078905540386
0.0204608821024759
0.040298043232143
0.0351266923403759
0.0201530615463154
0.0195663794077079
0.0326940985392477
0.0295518591025996
0.0175388748181381
0.0166020503594504
0.02729134584696
0.0280697479853513
0.0165657974443977
0.0164834670325056
0.0260421527827056
0.0242802962648904
0.016455655294773
0.0164491492710456
0.0227562779230155
0.023488708506124
0.0165522068106333
0.0165793630475997
0.0213924750316905
0.0205310249257385
0.0164122514901332
0.0160191552578904
0.0197791861052401
0.0189778072154847
0.0158645505403773
0.0158740796638715
0.0196711057481141
0.0181593264769697
0.0154652446291166
0.0156208276819439
0.0185623194038023
0.018679982096
0.0154690119119733
0.0153448455474569
0.0175316132723893
0.017324373110946
0.0151401475106621
0.0150692412948457
0.0165555940548006
0.0165525974780105
0.0150712040118203
0.0150132065336486
0.0158998325933538
0.0153411552010067
0.0150033630964419
0.0150038553315628
0.0150084437961495
0.0150071967987826
0.0150026270462403
0.0150023933004379
0.0150075792245716
0.0150079361068803
0.0150022030100465
0.0150016459236639
0.0150125956147812
0.0150063596981579
0.0150049036774595
0.015000234543295
0.0150000495987922
0.0150057527163633
0.0150043040880422
0.0150224498623692
0.0150379807152398
0.0150785618368536
0.0150527971416345
0.0150159212740026
0.0150225953028721
0.0150768374927163
0.0150479309709983
0.0151020191498428
0.0151408138120613
0.0151668650983446
0.0151326612553902
0.0151733987575639
0.0152059257274238
0.0151434899243143
0.0151311873222838
0.0151670824705162
0.0151790008229795
0.0151696570781587
0.0151613360088357
0.0151953324669073
0.0152038492373793
0.0151929101508981
0.0151828651237308
0.0152174085595788
0.0152279109993721
0.0152620972349156
0.0152513624046526
0.0152699584336277
0.0152817084854505
0.0153012196638921
0.0152843049563714
0.0153040750769395
0.0153223880281837
0.0153232889682001
0.0153051363295379
0.0153890708196511
0.0154293368483274
0.0154400479172125
0.0153994991196168
0.0154227078241572
0.0154637568478667
0.0157589766473827
0.0156596629486435
0.0157795284140174
0.0158410768858014
0.0165282808981151
0.016387781858194
0.0166146850554517
0.0167021332471835
0.017208508803031
0.0171255715318608
0.0186157834773472
0.0183490118210742
0.0171513536950901
0.0168502443453012
0.0163380331654737
0.0158356370832461
0.0157253309924894
0.0157290067379923
0.0156752637311296
0.0156651109508536
0.0156308836254523
0.0157446876406414
0.0157301875871377
0.0162968158781902
0.0168614979399283
0.0268482616956692
0.0238096327448787
0.0164495953936519
0.0158102041352325
0.0218201306309725
0.0201161783150883
0.015609446728651
0.0153208748878995
0.0193235552802171
0.0182406888033124
0.0152209016110121
0.0152247756466253
0.0182248120026303
0.0173169826804477
0.0151433673249364
0.0153587673405394
0.0175243924571094
0.0166620273322176
0.0151468263442277
0.0150111866212967
0.0150055274694041
0.0153728570309145
0.0159609656009695
0.0159108087486087
0.0150130707209341
0.0150018352583462
0.0153425003314938
0.0152870848631982
0.0158055494317977
0.0150152849002448
0.0150023381371428
0.0150034135407166
0.0150085754327359
0.0150069508631223
0.0150030457211545
0.0150043815060333
0.0150095582008422
0.0150128010091284
0.0150588641763025
0.0150553095800971
0.0151641682966485
0.016577036583776
0.016401134728187
0.0150995478907783
0.0151581856003727
0.0163851304773718
0.0158073939989877
0.0152852767028249
0.0150065738838722
0.0150281594312986
0.0150147067301806
0.0150046526699085
0.0150097074279862
0.015032902381967
0.0150441105016638
0.0150091197563673
0.0150270164128234
0.0153128722013776
0.0157399405160898
0.0150625480440195
0.0152805961202111
0.0163156915818293
0.0162936743368143
0.0162772437063948
0.0151432665915639
0.0152525656538898
0.0150607315066615
0.0150440773297978
0.015019080217852
0.0150270028952736
0.0152725217235632
0.0152904668631441
0.0155948249802138
0.0156530512686428
0.0155925603609511
0.0154124779237288
0.016873732207941
0.0169833454855969
0.0171594860007539
0.0155444693442035
0.0159815296136313
0.0185688478429096
0.0182579501018758
0.0179215603471981
0.0157002155422074
0.0158416635304565
0.0156362688471494
0.0154203962984019
0.0151318069191324
0.0152000447722984
0.0152267758830649
0.0151505347136568
0.0153082706431949
0.0154450649343964
0.0156581234286675
0.0154366919702147
0.015696607777104
0.0159197618450675
0.018969024110281
0.0186178777638903
0.0195676541588667
0.0157364435277854
0.0159895169306507
0.0199251189747268
0.0205803632772598
0.0163907928170809
0.0164707921485715
0.0209940148174861
0.0208357302441646
0.0205973502787119
0.015801832163662
0.0161211882237868
0.0155671149857489
0.0154197415625759
0.0152215566951553
0.0152769625240718
0.0153264495495591
0.015274533289032
0.0152149383839466
0.0152479841747287
0.0152903532189679
0.0152559007667037
0.0152024628108755
0.0152147221611429
0.0152509685822362
0.0152385289089796
0.0152298722990002
0.0152389036900714
0.015273617912818
0.0152639875013233
0.0152828577453638
0.0152937156742096
0.0152816291616547
0.0152698365528997
0.0152896756068352
0.0153034707330026
0.015303280232732
0.0152895797918535
0.015309745803107
0.0153264551271526
0.0153448554373112
0.0153241630509525
0.0153251101375712
0.0153456879038681
0.0154505426336855
0.0154107158138994
0.0154226868736061
0.0154580397598424
0.0154720073583791
0.0154383728114085
0.0154504029051664
0.0154847869871943
0.0154855362141153
0.0154513424619803
0.0156795723671027
0.0157634871978075
0.0157881142336203
0.0157037531094994
0.0158100462760295
0.0158662858767357
0.0158714247371896
0.0158322351109669
0.015914889580384
0.0158753919230943
0.0158490502431276
0.0157932221525802
0.0157895103545245
0.0158479389555788
0.0157673431356471
0.0156772465025436
0.0156667477579973
0.0157558322414634
0.0154712858988934
0.0154348266934248
0.015434679417282
0.0154710268961702
0.0154854512913777
0.0155215183376982
0.01553800701409
0.015547022536347
0.0155468886336243
0.0155613762904779
0.0155616441967928
0.0155634014766337
0.0155629310023467
0.0155714607776991
0.0155697636017198
0.0155867147108359
0.0156096129431977
0.0156125635498475
0.0156724815918224
0.0158123054667825
0.0159005322868406
0.0154446348958608
0.0154712669626592
0.0161889063177971
0.0237854629706161
0.0220998036766651
0.0159357307425749
0.0155754648002183
0.020582248978838
0.0205527433671613
0.0157763833815553
0.0153603962574847
0.0192931110120982
0.0200037583346567
0.0156790107135545
0.0154758136249159
0.0186406696061999
0.0185121958103846
0.0155233738041033
0.0153749555169935
0.0180440148449796
0.0180753875283244
0.0155749219438932
0.0153234491287602
0.0171242216679346
0.0172039021965771
0.0154687925753327
0.015722179200302
0.0182098034918606
0.0199873954045228
0.0163434280035617
0.0161649603498631
0.0192465677852128
0.0195369486566864
0.0165618392866906
0.0165846247116356
0.0201894387264274
0.0214808415777637
0.0168784236137517
0.0167045572786373
0.0220790254820561
0.0220452417560369
0.021998210342359
0.0158653156955607
0.0162154799641429
0.01563880013272
0.0154914909955971
0.0155889424275736
0.0157364774002745
0.0153879113339632
0.0153339329160979
0.015408805508659
0.0154713560968949
0.0153350154641315
0.0152995297414876
0.0153446526782527
0.0153776451814076
0.0152861122506586
0.0152739335348817
0.0152932479457299
0.0153063437827558
0.0152937045005167
0.01528284893978
0.0153032852336528
0.0153163991490674
0.0153162052463143
0.0153031167485455
0.0153241887112153
0.0153406937322273
0.015327081417026
0.0153101613736127
0.0153210299098393
0.0153353854854292
0.0153481648533294
0.0153349741123145
0.0153343512095396
0.0153472860039273
0.0153471636171079
0.0153342142576254
0.0153482383805634
0.0153646972822763
0.0153651586490141
0.015348497014466
0.0153493383636325
0.0153658214964753
0.0153656897034678
0.0153491779108765
0.0154323918335771
0.0154653902446894
0.0154768717242354
0.0154459855196482
0.0154555118828311
0.0154874264462769
0.0155002222686204
0.0154675839338047
0.0154690763452217
0.0155014970644526
0.0157731507433746
0.0156948151038692
0.0157305185114653
0.0158112422098557
0.015890114854357
0.0158346639737695
0.0159024569551784
0.0159260278854662
0.0162613882362751
0.0162722375286137
0.016307640156241
0.0162977744982822
0.0167780260444441
0.0166997663329237
0.0172293425605294
0.017305422090129
0.0189886600552104
0.0185860475074412
0.020887430423415
0.0447258290164645
0.0408437119308702
0.0203494823708062
0.0204697794223587
0.0429178260354812
0.045154428798855
0.0204488949426312
0.0207295908207929
0.0430821297826867
0.0435969313324093
0.0208236992920083
0.0208983651695532
0.0487478253080174
0.0441160664353521
0.0215235318004744
0.0223726544860469
0.0434209548524348
0.037952788244771
0.0216993320646473
0.0214900136525489
0.0375201078161948
0.035033680712929
0.0208150021863884
0.0203654439606587
0.0342718686529205
0.0366693314174708
0.0193342234629439
0.0180913834343884
0.0328622583398755
0.0303200334148434
0.0170728642922833
0.0168909511212659
0.0330946228941408
0.030115923000247
0.0166725276874129
0.0166058579287842
0.0274740529244291
0.0252847547070004
0.0165659861460816
0.0165720510060342
0.0242613895310092
0.0228045586450293
0.0165567149031387
0.0161625378691828
0.0216936007396606
0.0205092401765305
0.0161125449961029
0.0160585681773962
0.0204442819967523
0.0159891651723541
0.0161025922628894
0.0161623082997532
0.0218313166380978
0.0227400316683238
0.0161453283419297
0.0160510847394167
0.0202822574271519
0.0153283366847089
0.0151294176831681
0.0151342140402381
0.0152866864454261
0.0159373331634075
0.0198892178245546
0.0191135022756274
0.0156807997086171
0.0160322014184335
0.0194297783418652
0.02041266323148
0.016420992484025
0.016796566881588
0.0211232594645626
0.0211287283126901
0.0166112515213867
0.0166571079140214
0.0217146860034972
0.0224658285378114
0.0170416980980582
0.0170280899566747
0.0231015737558149
0.0234128858711463
0.016900212014379
0.0162607797766958
0.0159072752577306
0.0227985939724726
0.0232476917004928
0.0243607694766297
0.0239086563676533
0.0165017794573976
0.0169710694946096
0.0159409802753608
0.0157490363961211
0.016147657190647
0.0164222022142511
0.0155841466743135
0.015515949322482
0.0155450231742584
0.0156100030984889
0.015399288077558
0.0153665154607578
0.0153649227099912
0.0153967578676351
0.0153063521610646
0.0152931783224321
0.0153141257583883
0.0153293397734815
0.0153290299802372
0.0153140005030513
0.0153357138621988
0.0153540097465503
0.0153412394944124
0.0153246239936825
0.0153361728183817
0.0153501592401394
0.0153636867160822
0.0153509916485663
0.0153501323996097
0.0153627939519874
0.0153628929625448
0.0153502602309526
0.015335321681555
0.015348446477632
0.0153631393597576
0.0153505687886665
0.015349889209469
0.0153625614756361
0.0153614304292993
0.0153490773061152
0.015348926627361
0.0153612856812494
0.0153783624570693
0.0153627923192582
0.0153632728968693
0.0153791653009008
0.0153796241869799
0.0153639294962086
0.0153637880680991
0.0153794830498437
0.0153935003702837
0.0153776230437251
0.0154579983320717
0.0154883972355617
0.0155028291342409
0.0154708895243631
0.0154831039919922
0.0155158811014494
0.0155176139340934
0.015485117073887
0.0157073410983508
0.0157839487142122
0.0158344727610215
0.0157534556758093
0.0158590991711166
0.0159155738167914
0.015957418770449
0.0159367917916749
0.0159731871101437
0.015986887848608
0.016474962250229
0.0164740099741066
0.0164959086620885
0.0164917462192998
0.016855838350584
0.016787476375816
0.0173257083318258
0.0173936940500292
0.0188432656711828
0.0185871260095362
0.0207416444209001
0.0475415602498189
0.0429350375022874
0.0203458210234311
0.0204061841586031
0.0462778844070212
0.0517801487158241
0.0207721946692388
0.0186487484546544
0.0188687438018742
0.0189490291582625
0.0187412335601408
0.0208641818412692
0.0569254896429214
0.0502110026939383
0.0205135747097328
0.0207071963989543
0.0542330470862551
0.0492901018001238
0.0204772540543004
0.0209163114508709
0.0479488881674129
0.053830329707629
0.0213892016537303
0.0211444263045238
0.055004128722124
0.0503930166094814
0.0238966590105277
0.0251826567243439
0.0485980626440482
0.0415621290148324
0.0235562794997006
0.0233857630786804
0.0412447302430471
0.0384679330013337
0.0221593352768869
0.0204568500978931
0.0370631869148244
0.0432248916088171
0.021129677166164
0.0197040276738842
0.0404564185397758
0.04496934910771
0.0189540080307877
0.0183222673268519
0.0404525371300742
0.0364624424644725
0.0173734080749799
0.0169597537431728
0.0339374222719767
0.0310312535441507
0.016795248449906
0.016695620113188
0.0284674055355238
0.0261633960349197
0.016615155053152
0.0162391571582235
0.0244417035209459
0.0229172319076249
0.0161918111962619
0.0162056891565466
0.0230210786326127
0.024260871305575
0.0164368495382351
0.017290036720444
0.0257038182466335
0.0273735675672659
0.0175702973131671
0.0174058002239778
0.0281554996148448
0.0301944538370375
0.0178900769364965
0.0173551416601292
0.0298208170492623
0.0259252304602553
0.0166486708408786
0.0170568552606798
0.0256937446587016
0.0238432323378655
0.0162327714697271
0.0159967758031022
0.0221047180790422
0.0241996462807777
0.0165851575067058
0.0162752072669311
0.0216278483044136
0.0221134059953995
0.0168608430909301
0.0161225847875018
0.020702378415072
0.0200648818386784
0.016155581792532
0.0163402082487334
0.0209187973798677
0.0218097761269751
0.016772923445204
0.0168875871000315
0.0228810103249345
0.0227291937785127
0.0167357269690879
0.0169333289643276
0.0233674351015599
0.0244065314280197
0.0173150695344121
0.0175524522443332
0.0248782395650973
0.0247786054164878
0.017429438338078
0.0179608955996138
0.0263575792191993
0.0256519878098787
0.0252075516096546
0.0171485630241461
0.0176986807841999
0.0183640507286498
0.0179113829088434
0.0268407047905356
0.0271575811093922
0.0279751431261828
0.0184745785648322
0.0187924108266649
0.0300479416867805
0.0292389588045925
0.0293363625524763
0.0189586050926814
0.0191192497123837
0.0185226321066517
0.018068952525021
0.0178094669276557
0.0183821279785305
0.0165061573699212
0.0162467056567908
0.0162309407464236
0.0164955126091807
0.0156223410212703
0.0155514352601691
0.0155859925765732
0.0156549214486369
0.0156311587145418
0.0155710156062894
0.0153900177807034
0.0154233019860383
0.0154165986688954
0.0153855689668306
0.0154062298163563
0.0154374160921093
0.0153548251308479
0.015336229184002
0.0153484212480928
0.0153640964746365
0.0153783205224312
0.0153641160667729
0.0153629834074951
0.0153771800851823
0.0153765425352378
0.0153625051010697
0.0153511814443709
0.0153639320571941
0.0153798364679734
0.0153675744189757
0.0153669411706385
0.0153791421361123
0.0153779422981027
0.0153658199761912
0.0153660355247834
0.01537814136247
0.0153938408415333
0.0153813904928134
0.0153653594824843
0.0153782520454138
0.015377264576342
0.0153642554426447
0.0153632437432689
0.0153758771091076
0.0153756787021634
0.0153630685658336
0.0153766202596921
0.0153922708440778
0.0153934163860965
0.0153772961157022
0.0153777632940152
0.0153936991463847
0.0154079350450971
0.0153914104515307
0.0153912544472206
0.0154076455409872
0.0154999041529912
0.0154695511429264
0.0154856268502135
0.0155180861889019
0.0155315982291369
0.015498151279931
0.0155006570609123
0.0155337935793442
0.0157954183652223
0.0157192803634607
0.0157752205087353
0.0158575106192239
0.0159415042030963
0.0158834379214587
0.0159077792639769
0.015967465868533
0.0160158660807003
0.01600239110056
0.0160318580248578
0.0160451000946516
0.0165989772241159
0.0166116816344445
0.0166255249663813
0.0166026141721598
0.0169385325198686
0.0168810650247197
0.0174412119991622
0.0175048676487876
0.0176371023334278
0.0175728535352737
0.0177166401062942
0.0177813282179392
0.0190520390996345
0.0188569972710835
0.0209910660632192
0.0631190681653655
0.0549513742617458
0.0206560662687235
0.0209859439209993
0.0600235622252063
0.0609189827604517
0.0219101338073258
0.0212913486479646
0.0612296417377069
0.0577643149351108
0.0242753722693307
0.0265314589240728
0.0614060785479583
0.0555737394038437
0.0269043982143482
0.0271636636166959
0.0524164531580871
0.0452057717049491
0.0250412430393957
0.0247343580847752
0.0445214214151243
0.0483925128068611
0.024677725530165
0.0233692413406227
0.0480249581036196
0.0519906082300375
0.0235224828013824
0.0215826316078654
0.0495278560547737
0.0445257798481799
0.0202295723433662
0.0197452195055082
0.0499135993297671
0.0448167496022311
0.0180730759682855
0.0175970299926453
0.0408545482377033
0.037223158179233
0.0172346238298825
0.0170280715463039
0.0347292673332083
0.0317231688936946
0.0167977475077329
0.0166286680812851
0.0290532140339236
0.0266091337549404
0.01652785413533
0.0170823794030394
0.0259857209688839
0.0268288605551781
0.0175974037146515
0.0176869858549529
0.0284762646283664
0.0307523326696127
0.0177836379834785
0.0179643077209145
0.0334206057473829
0.0363924125533573
0.0181434737319172
0.0178506807021056
0.031234666991698
0.033899875541787
0.018458012499555
0.017912638186447
0.0331147552129793
0.028533387569168
0.0170639353921902
0.0178762923146985
0.0288596063428928
0.0313484022449456
0.0190639858908337
0.0185573825856081
0.0298928951192711
0.0268496971959323
0.0170030847066522
0.0174126397697897
0.0261314498161907
0.0285877779369136
0.0175204609915786
0.0173406265531844
0.0264786204303494
0.0247278938189316
0.0172421375152941
0.0171675629132233
0.0231081065505671
0.0219105990994935
0.0164740591375373
0.0164040001943672
0.0215952434560721
0.0226999351734662
0.0170325058167733
0.0171200390469874
0.024967697126224
0.0245740256233772
0.0170070445470764
0.0170001732705507
0.0244670503359447
0.0252841767351917
0.017485240318747
0.0184824067389296
0.0273945374331788
0.0270122778912217
0.0185065440993229
0.0184122021643127
0.0276278139392035
0.0281521421488967
0.0188875559617343
0.0191574973086152
0.0306952998950892
0.0332290533203702
0.0192724879167661
0.0190908436386988
0.0323748748731762
0.0314817732323812
0.0321670778673281
0.0190749520061126
0.0196332998505605
0.0183092063847313
0.0179639218069138
0.016330809994701
0.016583257564343
0.0165301260402663
0.0162901461763892
0.0163323688079004
0.0165379534656114
0.0156877787626383
0.0156200445178383
0.0155936034364552
0.0156482356192165
0.0154492573105464
0.0154143186111237
0.0154271824138895
0.0154575982851097
0.0154723559531048
0.0154439151595077
0.0154354427568774
0.0154612101682273
0.0154492218822334
0.015424503804036
0.0153639868163391
0.0153783812316083
0.0153955495292318
0.015381760588215
0.0153814394885128
0.015394940153359
0.0153937327034967
0.0153801143935239
0.0153790627775432
0.0153924711329984
0.0154094429902221
0.0153957065908219
0.0153839032694942
0.0153965564953463
0.0153952631003814
0.0153827123225748
0.0153811689103326
0.0153936007289662
0.0154097888823875
0.0153966510287551
0.0153966363693321
0.0154099413812306
0.015393672700242
0.0153800232007421
0.0153784205377172
0.015392186348189
0.0153905122434956
0.0153772245976039
0.0153770255731312
0.0153902395071294
0.0154063258276766
0.0153902592326045
0.0153911108109636
0.015407811427841
0.0154225159960379
0.0154052630156845
0.0154053941138698
0.0154224938091308
0.0154221031831427
0.0154052175097472
0.0154813396479599
0.0155116759359501
0.0155335402679007
0.0155005617182199
0.0155135622401093
0.0155477041598695
0.0155503955614516
0.0155165933716431
0.0157316151044815
0.0158074249072054
0.0158805289312838
0.0157971263851458
0.0158189966801389
0.0159033789368379
0.0159934909321246
0.0159320279084354
0.0159562266052185
0.0160195687102081
0.0160741063069491
0.0160605197626695
0.0160898543284053
0.0161036128638201
0.0166901656151452
0.01672373108126
0.0167338636739195
0.0166892526204726
0.0170268093716261
0.0169800930009331
0.0170782786612925
0.0171196210791981
0.0172143351221396
0.01718400427108
0.0178687726958974
0.0179299627928245
0.0191698505876472
0.018989218788937
0.0211407195157849
0.0701791341763763
0.0603457460212339
0.0208257971954377
0.0212056917480844
0.066871962347101
0.0694594826259468
0.0223488841250568
0.0214804390236347
0.0681986061382333
0.066335629941182
0.0240615541579242
0.026209806336006
0.0708804360321724
0.0620748090769418
0.0267208741619419
0.0250646343541296
0.0513877198905661
0.046847422467158
0.0249536273062506
0.0246657458662179
0.0458973822429332
0.049229158923157
0.0246545578208952
0.0247997961806697
0.0545871393430856
0.0616254431781805
0.0251996847811713
0.0234803358371366
0.0564073417233638
0.0630237811097591
0.0243822385495374
0.0227864476627957
0.0608162308593651
0.0499228012194369
0.0209442243007248
0.0208844657668364
0.0554292264112002
0.049199491420061
0.0187117051770142
0.0181214679594946
0.0465760846561217
0.0420732615766292
0.01767681319946
0.0173167230153687
0.0381640554800072
0.0397675844831654
0.0179338367114425
0.0176368031732655
0.0358953571807888
0.0324611089221829
0.0175093978506827
0.0174473491267819
0.0295924337386476
0.0173858247332762
0.0173264265852616
0.0174184647831929
0.0166926921690227
0.0156554588924512
0.01561093540223
0.0170079269437793
0.0182634612053223
0.0309186213528273
0.036571782911117
0.0182115030238373
0.0179610891175756
0.0336997415089885
0.0308702962715343
0.0177305243256294
0.0177690615075219
0.0301736926052875
0.0278789061890276
0.0172911098233297
0.0178478635715345
0.0295036054038261
0.0273631096715772
0.0175200428857267
0.017269751413594
0.0255869956598856
0.0242200926353307
0.0171077454797558
0.0165802475433462
0.0233002567381292
0.024566016034707
0.0167623909011269
0.017001509063155
0.0260891569106599
0.0279180979461252
0.017515811993507
0.0173183419666371
0.0260014974186275
0.0244032703274262
0.0171744327639226
0.0171458242239546
0.0162072519572847
0.0170366726501913
0.0246001056586545
0.023493487274809
0.0171586931615783
0.0170497012293223
0.0172433505629809
0.0165301643158449
0.0174314944380944
0.0272054974854265
0.0288748202871223
0.0180134224307617
0.0173416389477194
0.0175990279379379
0.0180305077097802
0.0327321126994585
0.0298964712029089
0.0175955360554367
0.0182120459690244
0.0320352372567364
0.0340082112641009
0.0191415854462181
0.0197442565893166
0.0310364552604926