/*--------------------------------*- C++ -*----------------------------------*\
| =========                 |                                                 |
| \\      /  F ield         | OpenFOAM: The Open Source CFD Toolbox           |
|  \\    /   O peration     | Version:  2312                                  |
|   \\  /    A nd           | Website:  www.openfoam.com                      |
|    \\/     M anipulation  |                                                 |
\*---------------------------------------------------------------------------*/
FoamFile
{
    version     2.0;
    format      ascii;
    arch        "LSB;label=32;scalar=64";
    class       volScalarField;
    location    "2000";
    object      p;
}
// * * * * * * * * * * * * * * * * * * * * * * * * * * * * * * * * * * * * * //

dimensions      [0 2 -2 0 0 0 0];

internalField   nonuniform List<scalar> 
209453
(
83645.1828390876
83660.3274843638
83682.0135774915
83659.1692700194
83644.7042913681
83633.237723351
83623.2964430329
83611.0365089235
83615.889313148
83623.9576982594
83623.4132323927
83620.707536375
83620.7125004262
83631.3827749952
83630.9088905272
83639.5506731767
83643.3942641558
83641.3125344291
83640.8319457515
83653.6567942757
83662.0290079362
83668.0457717662
83653.5732913914
83644.0995805209
83644.3410590373
83654.3277589182
83653.9021083244
83657.2948233156
83663.8923068501
83662.2611648533
83657.4782251744
83660.8502394185
83662.1295066193
83661.158977603
83659.9509385224
83658.3175242321
83663.9806198077
83670.9412241847
83658.4911294776
83657.8139837307
83671.4725050766
83658.605396046
83653.397123491
83658.7491288822
83678.0390670246
83619.8275874522
83627.4485452888
83602.5678065654
83574.6835691102
83582.185602856
83598.5768826993
83595.3903222531
83571.0759751681
83660.6899254668
83669.0549606557
83628.8467877795
83618.9762220341
83612.9749619045
83613.2110246035
83613.7217826422
83613.3803085383
83612.3731333377
83613.7560787048
83608.3800223691
83608.2945828939
83602.3721585367
83600.7989039347
83583.0825448586
83598.502210224
83615.9266771616
83611.9397662117
83630.6737659897
83667.6125303948
83662.21476044
83642.0716297688
83621.1680423159
83625.0325845062
83601.3639668109
83590.0808437029
83597.2747813242
83603.764250696
83608.1686394258
83607.1140194232
83607.8673043124
83609.8757808239
83610.620442784
83609.1591092207
83611.7105326475
83612.2853394758
83614.7056432222
83614.7753131499
83611.5650411911
83612.0594231514
83614.8990804375
83615.1820970315
83624.4340606685
83623.4094182956
83633.4168126998
83632.9959868804
83643.9450279219
83644.963310599
83655.7127429502
83654.8229345128
83666.8717161874
83667.1790316798
83663.4948495595
83663.3239269202
83675.6234983916
83675.7795822502
83669.6785471765
83669.0243493733
83667.0876485858
83669.4735425388
83670.0383582714
83667.5955824443
83656.4007052448
83666.0946250795
83667.3011007684
83671.3407772868
83688.8995672157
83674.3795172914
83674.2097763248
83683.02239606
83681.2116191219
83677.3365967981
83677.5870184459
83679.0656617592
83681.4937531495
83681.2453229993
83679.4356094828
83679.2561810342
83677.715599371
83677.7500034398
83675.2345845906
83673.4200463975
83671.2135677376
83670.7737993662
83659.3661363926
83659.6389594582
83652.7688305462
83651.6079034177
83646.3038323538
83647.2738835017
83645.5806452283
83644.7668069578
83647.2223272123
83654.6218076833
83656.4626555527
83634.8903237949
83631.322544355
83641.3905656212
83606.7932823342
83610.7716875405
83603.413163105
83600.6007496359
83589.4332585709
83598.5643476403
83609.306844599
83617.846607302
83637.9689697452
83612.2850270175
83604.7176348708
83622.7050956329
83609.5713058191
83605.9491014201
83607.4149403813
83608.5659885015
83611.8854920734
83609.8445808469
83603.7436427207
83601.7355198408
83604.0203225209
83603.4825027975
83603.59784793
83601.9653659267
83603.1004525767
83603.1275424629
83605.5601569679
83614.2824499828
83600.0336207314
83598.2471862282
83608.6029690925
83602.7812421104
83600.446242525
83600.9092998859
83601.5633746539
83603.2948513069
83602.988249237
83605.6030218622
83605.7349761369
83607.9668741915
83608.0194669655
83608.6393400925
83608.6223333512
83609.0815746647
83608.9777644456
83605.990320317
83606.2036343414
83606.3674003468
83606.1624908639
83606.5103090034
83606.7038508194
83607.4207790365
83607.3050583141
83608.4091301793
83608.7003779341
83608.819715113
83608.6116290584
83614.502418101
83614.3884340763
83623.8489970621
83624.587920951
83631.649385681
83631.9352799498
83632.725021346
83632.360510742
83642.3860259842
83642.9877102819
83654.9684220014
83654.3298222454
83668.8903305195
83669.1395152439
83686.7347261245
83686.39390106
83680.5011725848
83681.1996749206
83692.3706605102
83690.9265560754
83688.317542832
83689.4858019906
83683.9951654698
83684.2198835831
83682.7060436686
83681.9875096608
83685.1665419353
83685.0540252011
83692.3646468959
83692.5441174286
83688.1249214878
83687.1329481508
83684.134700885
83686.7776799251
83684.7222453996
83677.940106607
83689.801086096
83691.3944390693
83689.4303820471
83689.9900976893
83689.2820802096
83684.2990344712
83668.8708391763
83667.8628841981
83661.1134248138
83661.2618322583
83653.1224126944
83653.7891723382
83646.2623049268
83644.8953241306
83640.9759371965
83642.3079782195
83638.4080305918
83638.1428392354
83636.5691005378
83637.0167082334
83635.4321867671
83632.3459897178
83625.8712222558
83627.8163089224
83618.5667853885
83619.1701591755
83607.225058677
83598.0974386888
83602.7564157305
83605.2990255195
83603.6243649498
83602.0840363355
83603.450016354
83602.8518901565
83601.9009828668
83601.7270133687
83600.7598900443
83600.1896552275
83597.0380115232
83598.8661020929
83601.0745697237
83593.0312190057
83592.9682698359
83596.9549733726
83596.3072539142
83595.7538851438
83598.2853582439
83598.2554089718
83600.5395298367
83600.5373552732
83602.9505937634
83602.846077433
83604.8730759225
83605.1212370804
83602.293064047
83602.1374763392
83603.3734728678
83603.5982955142
83603.7783384477
83603.5277917871
83603.8412210616
83604.1173904028
83605.9454389251
83605.6598332523
83610.9121920782
83610.8016201752
83620.3542435072
83621.2250049702
83627.9379189157
83628.1964008166
83630.662181284
83630.4002046894
83641.1078313936
83641.6437393459
83642.6030535772
83642.0691476861
83655.1259669587
83655.8165174957
83672.3440665084
83672.110397962
83693.3276679042
83693.4080838243
83711.5203807143
83710.6457938315
83706.0077593189
83706.9369792616
83700.9331004479
83700.1092495073
83696.261827157
83697.1378927299
83707.9786539952
83707.8641324035
83702.531589087
83702.6448289009
83698.0261984882
83697.4141033003
83693.7411974752
83694.44524157
83703.2253935831
83702.6099295345
83699.7623857187
83700.315617968
83696.486927789
83694.1696408335
83691.8502469117
83695.3838194157
83703.3048838484
83703.7771186193
83702.9541029751
83703.1974049113
83693.8187853205
83698.5672656327
83702.4105144042
83703.1340170367
83714.7025850156
83708.6150039253
83706.6269709342
83707.2138886787
83710.4388371516
83709.1331816097
83713.222979107
83712.8231968012
83705.5965236613
83708.6327545765
83706.1597808799
83698.9594147895
83701.2576969063
83706.3459509081
83704.1951216696
83702.5586888951
83699.9159400338
83696.9051504467
83700.1239412191
83689.1881874092
83705.7817017523
83699.5241735489
83684.2101839308
83674.1187765337
83667.0012771376
83673.0786357131
83655.9850178957
83653.5401014667
83653.7535885947
83653.5964980648
83649.2664235649
83649.7552357357
83637.6971641972
83637.080954691
83635.8091545745
83637.5330561103
83636.2496989457
83634.4385166329
83632.5409379198
83631.757747264
83635.7882465823
83630.1186606346
83630.2867196387
83634.8162612575
83626.91081
83626.1301377127
83619.9733009234
83604.2462162278
83610.69864257
83613.6204368093
83609.1240789368
83598.5050952194
83602.8237973203
83605.2408607305
83602.8299150906
83603.9592900467
83599.079642403
83598.6403288018
83600.9354300639
83601.8799588658
83597.9967799352
83597.9372943667
83597.8289506645
83597.5175916659
83595.4916137967
83595.6931513902
83593.279004889
83589.6331618335
83593.0666145663
83593.6271930512
83595.7150167368
83595.6344976374
83597.6368396886
83597.7034894914
83599.9874980187
83600.0100523488
83596.7757591742
83597.2043574105
83600.1658290215
83599.86281485
83601.185704113
83601.323840712
83601.6448541644
83601.5844732829
83602.2249500076
83601.7624632929
83600.630808333
83601.8114701355
83596.3586642913
83596.7836356305
83600.1053584325
83599.6809760687
83599.8755187834
83600.5518244349
83604.2666276134
83604.3717531351
83614.5960275549
83614.1099942971
83619.9330100787
83619.5333297659
83624.7134660055
83624.9565539794
83634.9729658839
83634.2678142403
83638.2888893054
83638.8805427546
83653.0724841979
83652.3760359227
83654.9311307614
83655.6328246795
83673.7994375341
83673.6115251559
83698.0738329874
83697.9201830045
83722.2589404141
83721.6885048365
83717.1488385724
83718.0316353474
83735.5205542128
83735.5085045912
83728.1479945407
83728.1580341408
83720.7713448494
83720.6826490549
83714.0643586937
83714.12678244
83727.3126974548
83727.6988258527
83719.9033859118
83719.4852827652
83714.091987655
83714.2645646469
83707.9579056217
83708.0904900889
83718.4497548039
83718.4709360478
83712.2378962627
83712.4046086918
83708.1070225895
83708.1164610907
83709.0932122889
83705.414809183
83696.8846169771
83711.1529209515
83703.4199402686
83688.872522836
83676.5538428008
83660.7648258452
83636.3643358977
83607.0542106938
83580.3281090478
83551.074648751
83533.7939984258
83535.4851250805
83565.9246416791
83567.0824633036
83583.6716383909
83580.9073413597
83593.2448634402
83593.6095302219
83587.9457982006
83586.2169998239
83593.6232053307
83594.4150256032
83590.9293197408
83590.1523037422
83595.9455983358
83595.4236488602
83593.6318585817
83594.496969862
83594.5054134474
83594.0656296683
83590.2014954009
83591.070716645
83590.0782152294
83584.7058203694
83586.8505497302
83590.4987003407
83591.5169113733
83592.5443239556
83594.239427571
83585.0266318946
83591.0199405074
83592.2978100103
83594.9721311347
83594.752851241
83593.3741674778
83593.5686349755
83593.6257313204
83593.3936782075
83594.3452144777
83594.0083703054
83593.4244598693
83592.5566702597
83591.2938260129
83588.4207716821
83591.6850163972
83590.4776506996
83588.8925376095
83587.3968672589
83599.844654458
83594.5204779865
83591.9445825659
83595.3609170423
83596.4997448262
83598.6321674047
83596.5717657582
83600.5762343599
83601.2354665754
83612.1666804611
83643.817218618
83641.1143725574
83604.3769105799
83581.5214480729
83555.399714744
83567.8458799282
83585.1929972923
83589.2098959229
83584.3761628348
83601.7393875173
83597.9707902953
83606.0402319734
83609.7560373686
83639.9962343142
83620.8237409115
83611.5251887066
83645.5581974252
83588.2657992036
83591.2558505342
83583.5966652301
83577.5638185575
83568.9162154115
83584.286315825
83583.2264804235
83558.6745876129
83572.0140929103
83584.7670473243
83592.5024092629
83588.8346843781
83593.7003366115
83595.3890335939
83596.6140191318
83594.2196991626
83598.0323821776
83599.0294188383
83598.3148780993
83598.0357913785
83594.7871556068
83595.9491808864
83594.1596513393
83593.2949554538
83570.3916397207
83584.7816174515
83592.2827995608
83601.9417484162
83600.9650485155
83586.7400814772
83593.7741655428
83605.7708668582
83613.7634475052
83626.4467593335
83613.4937849006
83612.5062019502
83613.4532013792
83611.8021001705
83607.7637398898
83608.7654894314
83615.2716870911
83614.6346306157
83622.0919680587
83623.4875089873
83628.344769975
83627.2774868977
83638.0251541358
83639.0509349642
83648.3180634665
83647.6972136104
83665.5011195288
83665.8448694762
83671.7655666066
83671.4502757959
83697.5852859649
83697.4493895011
83727.2113952091
83726.9397447419
83724.8741197436
83725.3295541781
83747.9095153495
83748.3777225937
83743.0632763483
83742.7968176823
83763.3937816156
83764.23353055
83754.3980618062
83753.5632443324
83744.754573482
83745.356940801
83735.7300432577
83735.1846770769
83743.9348749268
83745.0226469634
83750.3734518179
83750.5248974697
83745.2799387056
83745.162307253
83739.9356648004
83740.1102655545
83735.3584296758
83735.181821583
83731.6711338594
83731.7919673592
83728.4762908245
83728.3764030217
83725.5348333729
83725.6532700426
83721.3992596003
83721.5767153644
83721.4936747978
83720.9023770663
83724.9105070477
83725.6062161844
83727.5437154901
83726.5623551671
83730.2862017444
83731.3036280594
83734.7554372553
83733.6409958227
83740.5802314693
83741.4432007195
83745.8438674279
83743.9339374662
83759.4339322285
83759.2094392757
83756.1547923708
83754.6073776944
83753.191839948
83750.3363062296
83742.93599573
83738.5067969737
83731.9481868485
83717.1707167869
83695.7607260002
83668.7078598293
83631.7256060791
83589.5493075353
83559.625373181
83542.7949944183
83526.3385401087
83510.9324634467
83507.7754584669
83549.8262474244
83553.045515384
83575.5665103416
83572.8933055196
83566.0243495139
83567.7808153727
83582.7554168816
83581.1068583609
83578.3334027532
83579.0204259598
83588.3399559839
83588.3932993644
83586.97140017
83587.3249634731
83587.5775526212
83585.8875549877
83584.3076066008
83588.1857625017
83590.5491789718
83588.042009424
83585.4997933888
83587.9292086968
83590.049169005
83590.7429045233
83584.2998553849
83591.7328900906
83602.3432205594
83631.724557246
83582.8587774711
83595.397439061
83598.6178887925
83573.4107915331
83649.6662354534
83626.0702759788
83624.7384946474
83645.3066072343
83632.6952014492
83627.4797149588
83620.7287092396
83620.2408554472
83615.7409155706
83616.8277478273
83621.046163736
83619.9796825197
83630.5299508822
83631.4667211478
83638.7882533685
83638.0579323749
83651.7970727601
83652.4851256559
83670.729205331
83670.8951267659
83690.1508390071
83689.8994579725
83723.931009942
83724.4170117645
83726.5346084098
83726.485345466
83752.5851133776
83753.7650201741
83753.0740699407
83752.2155651341
83777.3141060764
83778.7087572726
83771.9406276374
83770.8046773471
83786.284337792
83787.5244912536
83795.7041279963
83795.9391180211
83790.2106211333
83790.0096894899
83783.6157623535
83783.8991244869
83777.5021439033
83777.188803955
83773.0456087908
83773.2499716307
83767.1120837712
83766.9689786993
83760.624864011
83760.8543061663
83754.8784716979
83754.6750964349
83763.6671984779
83763.8882659099
83758.9599307661
83758.7876953573
83752.6536118442
83752.866699913
83748.0251076591
83747.8178347627
83742.2657785402
83742.5773388072
83738.4999005691
83738.2511201479
83733.7034237772
83734.0023745945
83730.3789799622
83730.2787541555
83727.6945185853
83727.498081336
83730.9606137927
83731.1489639836
83727.0460869682
83726.9507618929
83720.5722641261
83720.7253156383
83717.857914154
83718.5499993191
83716.846306127
83715.8267449898
83715.2500857868
83715.6581902632
83713.9848214737
83716.8569385959
83722.3990443004
83720.3643904433
83714.303898065
83714.1905924173
83697.5542840967
83704.8590235426
83717.0831277845
83717.5068432604
83714.006463375
83712.3480639085
83700.8449367443
83703.9211527
83695.8744557897
83692.1340338012
83678.6002504951
83684.5949728303
83669.4774820405
83666.5122926435
83650.2709451371
83648.55182415
83633.1602186123
83631.9846795987
83636.350324118
83635.0671367248
83637.8372934463
83637.9453225082
83620.5147789939
83620.4836773046
83622.9684708616
83623.0724550353
83623.3228466634
83623.3621755081
83624.9956770012
83624.680502984
83619.1978029246
83621.477899825
83633.4808024323
83626.6892985392
83621.3852124727
83631.3075028264
83615.6304048019
83612.7490540046
83621.7703646989
83623.2932552984
83618.6485167466
83612.6254891959
83608.1182590384
83619.2482927424
83588.6598402094
83593.7292424753
83602.4202683512
83605.6389614675
83600.1377170178
83594.3996577731
83588.5402957883
83583.4461955795
83577.9123994342
83578.3080700104
83577.5706298063
83581.2452974452
83583.496651883
83574.4532919482
83586.1045407332
83584.1507296366
83589.2331170598
83594.7330482806
83593.7258444606
83593.9134745873
83598.8964680226
83595.6774502555
83611.2063874535
83608.5441662331
83615.1335695129
83628.9272905227
83630.5051713564
83616.2027952722
83616.2751767392
83617.3084292209
83620.8653047624
83622.1728783395
83610.3704894981
83611.4209446188
83611.2947708911
83608.5813843578
83620.706404016
83622.2847818773
83621.5452311741
83620.3479304547
83647.3045846174
83647.3118768133
83665.785605847
83666.2930722033
83682.8604852001
83681.9109308204
83701.6547761863
83702.463610768
83714.0946373104
83713.3026379874
83737.5108431836
83739.4711642334
83750.237384137
83748.7648612828
83774.3254418814
83776.1418016638
83780.5038977271
83778.7852859868
83799.789857843
83801.2543574086
83810.0220289903
83810.1662554192
83807.9435542542
83807.7123728276
83803.3337697696
83803.6540966884
83798.8668553706
83798.480475864
83810.6986423394
83810.6618403873
83806.9837025409
83807.0690723973
83800.427728453
83800.404848303
83794.9556296401
83794.8964013985
83787.8789752055
83788.0429872901
83783.0669607814
83782.9653802058
83775.9601755228
83776.0819695246
83770.5111187043
83770.3202640884
83778.5785951091
83778.6971955385
83771.9656758818
83771.6930331005
83766.3671606384
83766.5627172933
83760.3018997023
83759.9756254021
83754.7234328854
83754.9347184321
83749.2279616735
83748.8858124273
83744.212770738
83744.5316501437
83739.7298197256
83739.3510358145
83735.1849797924
83735.1818612812
83740.0871389228
83740.0479744757
83736.7942940159
83736.6500360429
83740.6597504951
83740.7598043094
83736.8559448344
83736.9269081173
83731.0391218948
83730.5325925118
83726.0063709876
83727.318365442
83726.2007478776
83725.3680991157
83725.3014341987
83724.921134392
83731.3932232299
83730.2564939755
83731.5007960851
83733.0051039198
83735.5802154176
83734.449012527
83741.7230020411
83742.7248481755
83739.1298963395
83737.0644381108
83735.5623241973
83737.4990971771
83732.7424416172
83732.3624492255
83726.5510168664
83726.2705817389
83721.6067015834
83721.7917833126
83729.9666076239
83728.5128803382
83725.9063199465
83730.6811625686
83723.9927708665
83719.7053502601
83709.2447334871
83712.6620398007
83699.5203834708
83695.3228695048
83682.1127926856
83688.7270458337
83673.7962375366
83667.662976049
83654.9109761458
83664.7371098224
83649.0607444676
83650.3977100804
83616.3332460006
83617.106419005
83586.026134198
83584.9041823151
83604.1942366642
83605.0368364927
83614.6002454777
83614.7452209094
83600.1494944204
83599.931229532
83605.9867343353
83607.7773680388
83612.6442383207
83612.1369646419
83613.9934874915
83614.5754732642
83604.0722465682
83599.7001703716
83617.2133739159
83613.2702990633
83605.8130679941
83616.1986852117
83579.2027767933
83593.4175311437
83579.1340715537
83573.1846442716
83559.8420781218
83556.7651542879
83537.5456294913
83543.9271530215
83494.8089977336
83498.1068720516
83463.585037441
83461.9518882519
83437.5037150488
83436.9526238703
83405.4351049149
83411.590260324
83486.7757986571
83487.5977639687
83539.8958711196
83537.202216605
83533.7219626162
83532.2864004041
83562.2718006784
83561.8256305174
83553.2366662225
83558.5704860846
83569.8713540685
83557.9075283572
83578.4672925023
83579.2116893117
83570.7740231056
83552.1569793722
83570.0403660212
83570.2800913799
83573.4122512993
83577.3805791619
83587.823120091
83582.5852568596
83589.5614676674
83594.8608923317
83597.1582299773
83594.5025777335
83600.4006794295
83608.3543448822
83612.4379371669
83603.7730197529
83594.6453369627
83592.037792451
83599.1935794041
83602.539020721
83605.7089674728
83602.8840095813
83594.0527264419
83596.5075155048
83591.9427520964
83587.5534414195
83581.211999206
83586.4102219437
83578.2849278344
83576.0357481707
83582.3925275597
83584.0114175473
83585.9928822505
83584.5588396185
83588.8776810121
83589.6656111418
83599.6854743223
83598.2878384863
83604.218711405
83605.242295173
83626.6057939756
83626.4687207725
83644.1674460532
83644.0245995071
83645.354330851
83646.0360986875
83672.2040002668
83671.3441430445
83697.4078147465
83699.4282728755
83721.7291250718
83719.6916408929
83738.7321769995
83740.6811416182
83763.8856051984
83762.0635572993
83783.8502039948
83785.0369445537
83790.1755485423
83790.0983882377
83800.0229678192
83799.9848204211
83804.7316119268
83804.9605827365
83807.567579935
83807.3064534894
83819.4081413352
83818.9077887627
83821.0081398492
83821.4411050249
83818.9393622609
83818.6942367524
83815.8853983711
83816.1010548912
83825.5533839717
83824.958996936
83819.8063066806
83820.1520427652
83816.1895205962
83815.9116311398
83809.5197888999
83809.6719880357
83803.9465389098
83803.8900719197
83796.91088456
83796.8528546777
83791.5208133791
83791.6020650953
83784.6839103007
83784.5049453572
83792.1349960818
83792.1271308951
83785.9442306108
83785.9569651499
83779.2313235955
83779.2905515415
83773.504279783
83773.4909024116
83767.1071834754
83767.234469511
83761.3472332415
83761.2949313829
83755.3116362806
83755.4619269304
83750.1073229791
83749.9276370525
83744.554993359
83744.9396340284
83750.3973431081
83750.1191572497
83745.2448761499
83745.1837172557
83750.4939334946
83750.4731893923
83746.9409315477
83746.7618118233
83750.8977924498
83751.0001243133
83746.9768177461
83747.0222900535
83740.8345158116
83740.3140619793
83748.3732398721
83748.9229757161
83755.6783040516
83755.2135209124
83747.9440608319
83748.894906253
83744.6610531229
83742.3622437614
83740.778065656
83743.0350919941
83738.0637532501
83737.0729539484
83732.550597662
83732.3651535414
83726.9026412545
83727.5885147416
83716.9535559002
83717.1604616656
83711.3824274201
83715.9160898239
83711.4292362398
83704.4272693136
83706.2996096683
83705.4510232508
83694.3088247035
83693.308152078
83679.2075119255
83688.2964129223
83666.3297757021
83667.2404684142
83667.8295276688
83666.7557421518
83649.6565449217
83659.7383355308
83635.6170602541
83632.486004345
83593.6686844889
83594.6021755107
83556.032187703
83557.7746787544
83532.3858572027
83529.7523719366
83561.4993267855
83562.6485751093
83585.1655032564
83584.8348853308
83561.0225265179
83561.7982214535
83583.2669825594
83581.6732750188
83591.7585467414
83586.3988873809
83601.9772017987
83600.8957193353
83591.5264991005
83593.9742262926
83575.6499893809
83580.3944655501
83570.8347072186
83578.9844522492
83555.9122248013
83551.8634437668
83519.6365983685
83516.7173420294
83494.1936879419
83491.7281920582
83470.6394499031
83474.930697353
83419.8812973741
83422.030970007
83378.467097031
83379.5988240669
83354.0317152581
83344.8000976472
83312.8022483403
83329.8984604099
83322.8614594922
83303.9201867933
83364.9217808897
83361.7304501405
83463.6648032009
83465.0823006536
83469.002581824
83463.3241972643
83455.1521586823
83459.5506907898
83502.3648025572
83504.5096889102
83545.5997076204
83535.1207873204
83542.9782174177
83541.0713469515
83557.8405297946
83549.4655345642
83557.8951562651
83557.5703023008
83556.2111466387
83551.4738933132
83540.610147414
83547.1430747644
83544.8373081295
83546.6632755282
83558.3720939267
83557.9532348249
83572.9313589326
83570.1317702276
83576.8197436671
83578.2277326615
83590.1791673179
83586.553488068
83582.9161516379
83569.1560269331
83556.8557912459
83570.7421036637
83572.1635376398
83572.3198891768
83561.9482471252
83560.8168500727
83563.9461899736
83563.9300508013
83566.7322147897
83567.1824523092
83569.9965640762
83568.9500991652
83580.3227548275
83581.0426489583
83596.4425266301
83596.1786303772
83619.8645805357
83619.7958205566
83611.57994964
83611.7005469589
83643.7550740466
83643.3466434926
83675.4361664187
83676.4599897042
83712.2114460451
83710.6684978013
83725.3337441765
83725.1559805064
83721.4396653682
83721.2596580424
83742.9331233301
83743.4218637414
83759.7107042063
83759.5064184501
83776.4998852623
83776.7342646491
83782.0197437115
83780.4263810209
83794.9769750034
83796.1513105826
83808.9753643533
83807.8675951635
83814.9196122117
83815.5580097841
83821.7908519745
83819.9367903318
83825.9591415477
83827.3902907103
83830.2947228082
83829.2293420632
83827.6058220554
83828.3767408204
83832.9088140028
83831.8100110833
83829.8626322024
83830.7272334924
83826.1312804842
83825.5458295665
83821.9379976867
83822.4173447622
83816.3863918553
83816.0915527896
83810.70902709
83810.9558474537
83804.3601469459
83804.2354683298
83798.7864933292
83798.8808580031
83804.9811941076
83804.8111636242
83798.5756181776
83798.6540428007
83792.6834271093
83792.6157311919
83786.210632873
83786.2193129808
83780.1882800058
83780.2028316391
83773.8507420221
83773.7925173683
83767.6988876117
83767.7636022365
83761.7211749413
83761.5898650497
83755.8482995534
83755.9676542259
83761.6870341898
83761.5437835362
83755.4969381957
83755.828364515
83761.2165540117
83760.9749613209
83755.7841807083
83755.6926975405
83760.8265767556
83760.8232497232
83757.0281543126
83756.7665316249
83760.4883122835
83760.6517064922
83756.0894862537
83755.9152218996
83763.5212672414
83763.9222109273
83770.0087111764
83769.3884756897
83760.8767164278
83760.5021106491
83752.5385283197
83753.4935574844
83748.7660926943
83746.4375954879
83744.6510344053
83746.9901742378
83741.7833218183
83740.3178431753
83734.8278317577
83735.3766481657
83729.6836124535
83729.700301875
83722.2700063215
83721.0699429689
83712.510918132
83714.2548074297
83702.3373255787
83702.9016511885
83690.9212404243
83688.6772966176
83693.424142519
83691.7081250431
83680.0869129761
83680.5320808244
83678.5274462761
83679.458940958
83676.4390200106
83675.56106096
83677.3252867122
83674.7751060971
83659.4697550511
83665.1384239455
83641.9667108508
83646.9563217783
83611.1017892312
83608.6042777363
83562.5151641144
83561.2324303219
83515.9745941319
83519.5632306738
83492.7797557061
83488.0732898123
83452.9483555079
83457.2591746468
83499.7377958874
83497.7864340673
83533.0738330634
83534.0110853605
83507.3226810219
83506.2250711077
83535.3979100779
83536.0068814902
83566.032670877
83562.8585973553
83579.964766022
83585.2663515988
83573.7294854654
83559.9030350932
83531.0922248364
83487.3573815361
83442.0998119915
83390.0621642481
83346.1647309723
83322.8524862288
83320.9031200463
83304.4911072776
83302.2364744536
83358.7948236823
83356.6393295339
83418.6663301071
83416.330306093
83406.2452515683
83405.1558425815
83398.2791436196
83399.2357788637
83392.0611443876
83390.9919330957
83451.6538692413
83453.5468770327
83501.9379125637
83502.4103847383
83541.4137149181
83536.0064821275
83535.4485047856
83536.4245371923
83505.3966668246
83502.8271078434
83456.2170678585
83455.2615038164
83452.7915109054
83454.5642685038
83499.4066955035
83500.6115568865
83539.6898856045
83532.4572251491
83532.7443467902
83534.293946316
83509.2810769382
83515.4495018757
83535.5528006961
83536.4079451808
83504.5721388363
83465.3307510263
83467.0384951455
83428.4732221676
83434.8151644958
83369.3341449624
83372.1498958063
83414.9306922657
83352.3088000979
83346.192163079
83346.6445263322
83331.8940978663
83330.1894694536
83314.1601720338
83316.5606320071
83306.5736225168
83305.497947258
83314.6281343329
83315.0251249764
83312.5624949759
83309.5992017019
83308.5909924555
83314.3988936773
83309.5856549038
83306.4883424435
83305.8722363967
83311.686129965
83286.1890279438
83295.0335923965
83295.4021343029
83282.9703458411
83293.0743380505
83297.7797836832
83303.5629016205
83302.6213572326
83310.8935167188
83311.0161648179
83323.4967600128
83323.6030942972
83327.5664593053
83331.7867016849
83333.1174741171
83329.2371506397
83331.9285296547
83333.8092739604
83363.8566867396
83364.5628981908
83373.4639274348
83373.0527250524
83384.4310441436
83384.6139207094
83399.5095739408
83398.971191233
83414.9745342029
83415.7433232985
83432.4890304146
83431.4597237688
83446.9749336566
83448.1921408357
83462.2377158272
83460.9369333
83472.1442938711
83473.3146620444
83482.877043511
83482.185034677
83491.1481365964
83490.9435001863
83504.139801779
83505.1538490228
83526.5312868975
83524.5437265088
83564.0708165442
83566.2479488472
83625.6259565632
83624.7763841775
83694.8489637248
83694.222152425
83752.5330004291
83754.2013687745
83787.1251779229
83785.3166284139
83801.2421270548
83802.7819632257
83810.1381124816
83808.6543320512
83813.7583032646
83815.2813178129
83817.8223164032
83816.4593752396
83818.7824751034
83819.9577331489
83819.7075902712
83818.7564222039
83817.9201992052
83818.729485161
83815.8621946333
83815.345684879
83812.3991670502
83812.7698061451
83808.2430266658
83807.9431419357
83803.1643385984
83803.3771448077
83797.756618038
83797.6665143946
83791.9483027254
83791.9954404964
83785.8080456454
83785.7858919753
83779.5900626299
83779.5530960808
83773.2612159683
83773.3458674381
83767.2303188242
83767.1511075833
83772.47674408
83772.5425017595
83766.396578031
83766.1190803218
83771.2347981672
83771.4213368474
83765.6730501603
83765.8056132931
83770.4164137122
83770.3633420495
83765.9180071085
83766.2437369328
83769.235802549
83769.0150852773
83773.7290264999
83774.0728083413
83776.1340276042
83775.8780931463
83779.4609442698
83779.8198122654
83780.5513755189
83780.2305555957
83772.779402924
83773.6779482103
83763.6845888722
83763.8877017173
83756.1648862315
83755.3650227895
83748.8605684833
83750.6157371501
83748.2268605594
83746.8033222824
83742.8564219929
83743.9738546581
83737.291113475
83736.9076946345
83731.0720988467
83731.450465561
83722.5776082614
83722.8887821609
83712.130286051
83711.9938363692
83702.4309101537
83701.3451603797
83688.8883127065
83690.0089618041
83688.2293149613
83688.2075650706
83684.0441194402
83683.0838649256
83666.8017511653
83668.7208847946
83661.7192788515
83658.0714953986
83643.0582881997
83646.5917218894
83643.3139729356
83644.1734624019
83623.085277929
83619.8259445307
83592.0099160535
83598.550337739
83558.756912446
83552.719734513
83516.2289297266
83509.2741032861
83459.2515508167
83465.6375083534
83442.1970278802
83434.5952457431
83398.9115940045
83406.4269913283
83380.7613861347
83375.2270609844
83425.5812186721
83429.1882118407
83470.6057232532
83468.6370948859
83451.4103434563
83450.0777011499
83416.6398628496
83411.3335996083
83386.3638601893
83392.6337881605
83329.2147339843
83326.2104532336
83290.8567826805