/*--------------------------------*- C++ -*----------------------------------*\
| =========                 |                                                 |
| \\      /  F ield         | OpenFOAM: The Open Source CFD Toolbox           |
|  \\    /   O peration     | Version:  2312                                  |
|   \\  /    A nd           | Website:  www.openfoam.com                      |
|    \\/     M anipulation  |                                                 |
\*---------------------------------------------------------------------------*/
FoamFile
{
    version     2.0;
    format      ascii;
    arch        "LSB;label=32;scalar=64";
    class       volScalarField;
    location    "1500";
    object      k;
}
// * * * * * * * * * * * * * * * * * * * * * * * * * * * * * * * * * * * * * //

dimensions      [0 2 -2 0 0 0 0];

internalField   nonuniform List<scalar> 
209453
(
0.0158045200848349
0.0168268835326406
0.0223829575343041
0.0212619938678038
0.0165572890240409
0.0164654068394552
0.0208298756344585
0.0201788128896925
0.0197705832450136
0.0157907027121569
0.0160113963072749
0.0155311069905117
0.0153833047288402
0.0154602326587112
0.0155981111415818
0.0161721242653914
0.0211261160241096
0.0208375639093338
0.0158860287967393
0.015974818985385
0.0222449148114706
0.0223608836371769
0.0162940684192671
0.0156829819774828
0.0155348489074359
0.0156197626620891
0.0157716185334348
0.0165424136252405
0.0236469074425809
0.0235491239218314
0.0161768990572523
0.0167388825572292
0.0247210061470458
0.0249202316254304
0.0171697019263043
0.0173109876768714
0.0253206810531974
0.0238003312293457
0.016973780222058
0.0171461403222489
0.0234346326106068
0.0226891627663104
0.0171517258978307
0.0169901481835958
0.0210298716797316
0.0196510475056972
0.0165794446973922
0.0160329591753987
0.0186255166491196
0.0171719247852882
0.0155530631070653
0.0152644638017264
0.016334725815168
0.0157512187343459
0.0153141787002397
0.015026294964869
0.0150622847619981
0.0150494538417755
0.0150148247755939
0.0150111322589861
0.0150081604374442
0.0150231966608781
0.0150383982376153
0.0150745630761758
0.0150476944594896
0.0152259545305767
0.0163415765187404
0.0163916076048914
0.0152584571045119
0.015060747858829
0.0150872173446501
0.015603696219283
0.0157018212191942
0.0152726564795266
0.0152904935616793
0.0150252626126697
0.0150264926719014
0.0155448848996701
0.0171624353287136
0.0169934053713048
0.0154243615787464
0.0151092555660766
0.0151671327488136
0.0151829947644149
0.0151177824217659
0.0154491778741322
0.0156441025616024
0.0156660691008867
0.0154657770603064
0.015323788920433
0.01544622851266
0.015203931566853
0.0151313568006269
0.0150871423770103
0.0151274184104018
0.0152115256465455
0.0151446166659051
0.0152010854247268
0.0152673503350326
0.0153158880055752
0.0152605617137282
0.0153292559698565
0.0153914527242115
0.0155298981162601
0.015418552378233
0.0157801133530455
0.0160055394117828
0.0163350562020456
0.0161717307270039
0.0173919869541697
0.0262352018942562
0.0263027464605576
0.0176853998130079
0.0177998368615799
0.0267304953026012
0.0258503686530068
0.0174966439488192
0.0177577346230404
0.0267362708820837
0.0276180989937009
0.0177819155421443
0.0178449874708724
0.0273444195474203
0.0278062729572836
0.0177381975936315
0.0177953807103707
0.0280173301281071
0.0307046383914989
0.0193206110886012
0.0188944302716676
0.0297781582273692
0.0290360641541893
0.0183281081801169
0.0185391870145159
0.0307737427439174
0.0299223307586101
0.0178319349471343
0.0174059239370214
0.026901370749573
0.0246791523989141
0.01724849152072
0.0168036113264801
0.0238086133880096
0.0221854953850893
0.016695452685259
0.0165815165382602
0.0207669571939205
0.0195442157747805
0.0163203359244885
0.0162470675301071
0.0194023035529994
0.0184878994834687
0.0160178248601117
0.015554605234815
0.0172471352965703
0.0164286423781099
0.0152819636394651
0.0150548210799228
0.0150200965106941
0.0153218679237824
0.0158280077612795
0.0158364263030989
0.0152869895452836
0.015011624247019
0.0150342866825224
0.0150180201177726
0.015007873486185
0.0150132622474816
0.0150342604776443
0.015038720474805
0.0151489661103968
0.0150953539178568
0.0151871185396169
0.0164385908588208
0.0164407598985106
0.0151168414081328
0.0150164073707742
0.0150045178532395
0.0152883783032698
0.0158302088142275
0.0159096335667169
0.0153437152038586
0.0150013319641498
0.0150126123192757
0.0150085716040174
0.0150047166601276
0.0150025578111876
0.0150049870892968
0.0150085789993207
0.0150037908044105
0.0150053373622969
0.0150157577965175
0.015010573528971
0.015005012536444
0.0150033174716465
0.0150043871006279
0.0150016727116117
0.0150013652116017
0.0150032433054789
0.0150043805918977
0.0150087713940554
0.0150060913721241
0.0150074521907103
0.0150168189514651
0.0150630894274278
0.0150326976869919
0.0150197853260237
0.0150292963795249
0.0150756941207432
0.015056082121318
0.0150821276610597
0.0150998009712049
0.0151326506304138
0.0151178055576772
0.01515717310008
0.0151923439406295
0.0152353469931346
0.0151997351625989
0.0152430894055037
0.0152811586170651
0.0153340610940552
0.0152909297958727
0.0153446596542716
0.0153872148439889
0.0156681642366405
0.0155510197596289
0.0156315210757069
0.0157299825157618
0.0163815263565275
0.0162299477983801
0.0162308572800131
0.0163738758101617
0.0176250334849093
0.017719216487965
0.0180745134011884
0.0177922272606088
0.0177325854071174
0.0179606866115312
0.0192929233630349
0.0321913027554167
0.0312276591702809
0.0189171019930276
0.0183998236072398
0.0308674103640323
0.0323788642745272
0.0185780770137607
0.0202425310512323
0.0344458429686381
0.0342213205173566
0.0196414115673194
0.0184324465928961
0.0310361161492405
0.0280326631404339
0.0173035089254341
0.0169411410804774
0.0256626226106958
0.0253261962469839
0.0164359876215279
0.0163862110982
0.023628632441045
0.0221418802368168
0.0163739558587915
0.0163751600004864
0.0207218246051263
0.0211355677549465
0.0164333556792122
0.0163604098702282
0.0194959103092085
0.0192716241027466
0.0160934093011643
0.015761509967234
0.0184038381684451
0.0172328633053608
0.0154241963180678
0.0152511939099505
0.0172105473532519
0.017415177080153
0.0153793532165932
0.015159648450141
0.0165732332088637
0.0166609580108772
0.015142272176539
0.0150112287310675
0.0150038398833938
0.0153738831086788
0.0159613297779114
0.0159023023645411
0.0153415417093371
0.0150023053096196
0.0150088638872465
0.0150059513117031
0.0150026254656323
0.0150025888910905
0.015006223630929
0.0150063751531295
0.0150024534068804
0.0150024390358488
0.0150064959922493
0.0150067889620125
0.0150017079578457
0.0150009386945839
0.0150008464980896
0.0150046430280957
0.0150051327050359
0.0150150520877249
0.0150127519540686
0.0150306560436119
0.0150398396074749
0.0150868320062047
0.0150688306980961
0.0150939098431611
0.0151068595249517
0.0151362618872802
0.0151272393835915
0.0151143523626753
0.0151248760450668
0.0151584774446828
0.0151486544647734
0.0151545651678827
0.0151692185953546
0.0152067865599661
0.0151911801492869
0.0152285009613551
0.0152451332712775
0.0152819709273799
0.0152656851626499
0.0152855004142145
0.0153022232495652
0.0154079091453979
0.0153664377872641
0.0153744735799004
0.0154171598464898
0.0156993775464641
0.0155876133465514
0.0156267448954033
0.0157325600142615
0.015784425384658
0.0156964211775071
0.0162985830769527
0.0164417003769222
0.0164312213445471
0.0162888156665383
0.0164807895773772
0.016594275470581
0.0178443604161195
0.018098405535754
0.0194809924312535
0.0355306278013847
0.0335308531242075
0.0191756348256039
0.0199661661092085
0.0207751043888191
0.0382718470094841
0.0355827907083696
0.0340175563194623
0.0190936373463706
0.019749448865634
0.0360561906257715
0.0386438406000551
0.0429794621848276
0.0215329886774197
0.0204052136029552
0.0193004356354906
0.0188097294745787
0.0188429027972738
0.0193072127887577
0.0204947829666407
0.0214574663035508
0.0457092327516388
0.0410166807602084
0.04321715977045
0.0205630961855648
0.0207389232214084
0.0397913505200809
0.0397096843170352
0.020778094920857
0.0207068203086975
0.0366050138149063
0.0204442455873095
0.0180790001657127
0.0204609514681008
0.0402979199975518
0.0351267358066
0.0201531779498481
0.0195665345374074
0.0326940580030182
0.0295518139769702
0.0175389599757137
0.0166020441684274
0.0272913127082985
0.0280696367691145
0.0165658896959889
0.0164835102564126
0.0260420877320277
0.0242802547718124
0.0164556780997304
0.0164491602197558
0.0227562520746229
0.0234886657149762
0.0165522066473543
0.016579350520084
0.0213924570203877
0.0205310135068073
0.0164122353716982
0.0160191484771613
0.0197791783942964
0.018977803187525
0.0158645504439875
0.0158740774540937
0.019671096485205
0.0181593230754519
0.0154652425071951
0.0156208250799577
0.0185623150742086
0.0186799770945656
0.0154690112121262
0.0153448420388441
0.017531611823693
0.0173243712856057
0.0151401444834259
0.0150692372709018
0.0165555931866399
0.0165525963137315
0.0150712007295053
0.0150132050361034
0.0158998320065708
0.015341155174023
0.0150033625057416
0.0150038549268758
0.0150084431053342
0.0150071960776466
0.01500262685006
0.0150023930110685
0.0150075781841645
0.0150079359338988
0.0150022031387859
0.0150016463451638
0.0150125948984626
0.0150063580173967
0.0150049013065222
0.0150002340490851
0.0150000493410008
0.015005752680802
0.015004304393516
0.0150224479277638
0.0150379806212868
0.0150785614298879
0.0150527925804128
0.015015916993593
0.0150225917363573
0.0150768343608672
0.0150479259152631
0.0151020156435255
0.0151408134270288
0.0151668642791588
0.0151326574711408
0.0151733951216762
0.015205925048903
0.0151434909079744
0.0151311875577973
0.0151670825197733
0.0151790018251403
0.0151696571317409
0.015161334124561
0.0151953299723874
0.0152038487153734
0.0151929169331601
0.0151828699855119
0.015217412960657
0.0152279171314417
0.0152621032542569
0.0152513670578752
0.0152699627453281
0.0152817139420438
0.0153012212999025
0.0152843059981669
0.0153040756538373
0.0153223892737833
0.0153232883858867
0.0153051354455197
0.0153890667370072
0.0154293349858963
0.0154400394427313
0.0153994899134861
0.015422696951635
0.015463746620177
0.0157589692906261
0.0156596552255615
0.0157795190221791
0.0158410598121999
0.0165284226362508
0.0163879218378493
0.016614867852519
0.0167023182864166
0.0172086446481549
0.0171256986260677
0.0186157900728711
0.0183490275333282
0.0171514852637302
0.0168503171177977
0.016338095238584
0.0158356397605192
0.015725340998037
0.0157290198044015
0.0156752768385283
0.0156651260094094
0.0156308910365315
0.0157447193758139
0.0157302178549641
0.0162969038092551
0.0168616104355909
0.0268480349295484
0.0238095399474175
0.0164496670204277
0.015810238890124
0.0218200857343365
0.0201161621557978
0.0156094575903151
0.0153208931057148
0.019323543867131
0.0182406844121802
0.0152209077644085
0.0152247792881224
0.0182248083027184
0.0173169808775913
0.0151433659975757
0.0153587606355601
0.0175243910788175
0.0166620262913914
0.01514682168474
0.0150111850316492
0.0150055272942595
0.015372857023147
0.0159609649729586
0.0159108086282465
0.0150130701469221
0.015001835194916
0.015342500324417
0.0152870848616834
0.0158055493971963
0.0150152832889939
0.0150023380945525
0.0150034136024672
0.0150085747919774
0.0150069480491695
0.0150030461399101
0.0150043808328474
0.0150095597585631
0.0150128017017571
0.0150588621282963
0.015055307407459
0.0151641658296274
0.0165770361355868
0.0164011345515496
0.0150995430911635
0.0151581819146962
0.0163851303883028
0.015807393917802
0.0152852767210828
0.01500657454192
0.0150281591580386
0.0150147073389888
0.0150046526582293
0.0150097078803258
0.0150329013502493
0.0150441108902962
0.0150091203801181
0.0150270164211792
0.0153128722012514
0.0157399405986534
0.0150625481388872
0.0152805963266408
0.0163156917861302
0.0162936746210878
0.0162772438846044
0.0151432661723456
0.0152525658955175
0.0150607315298078
0.0150440768001486
0.0150190802630044
0.0150270029119317
0.0152725217245887
0.0152904668644647
0.0155948250465922
0.0156530513983896
0.0155925582113864
0.0154124753097075
0.016873732733035
0.0169833463881017
0.0171594870500248
0.01554446550436
0.0159815255550289
0.0185688529396007
0.0182579532199296
0.0179215620149802
0.0157002118335474
0.0158416608628685
0.0156362661518096
0.0154203892673025
0.0151317977609735
0.0152000412930772
0.0152267687837651
0.0151505242324483
0.015308262809359
0.0154450612763243
0.0156581212378616
0.0154366842875806
0.0156966001825593
0.0159197589806501
0.0189690326764892
0.018617883833512
0.0195676712792051
0.0157364364549617
0.015989519478926
0.0199251436405331
0.0205803898999676
0.016390804193012
0.016470810039698
0.0209940472959278
0.0208357649007881
0.0205973776820793
0.0158018252106536
0.0161211998980083
0.0155671191228089
0.0154197573755869
0.0152215555142439
0.0152769668838301
0.0153264539037122
0.0152745343927107
0.0152149352247483
0.0152479838661298
0.015290353951167
0.0152558986338866
0.015202462986228
0.015214723584275
0.0152509707460336
0.0152385293825613
0.0152298697300029
0.0152389029440802
0.0152736177096031
0.0152639857052429
0.0152828562931428
0.0152937158140139
0.015281635407934
0.0152698415029214
0.0152896812839377
0.015303477903986
0.0153032862196723
0.015289584548157
0.0153097514599848
0.0153264625467815
0.0153448571419047
0.0153241637074418
0.0153251092800216
0.0153456877927967
0.015450538083516
0.0154107097038316
0.0154226792187955
0.0154580334046398
0.0154719995126403
0.0154383635788662
0.0154503880257206
0.0154847725258473
0.0154855214792675
0.0154513272839455
0.015679547021382
0.0157634610326176
0.0157880974218042
0.0157037361110062
0.0158100220802762
0.015866256275109
0.0158713949683761
0.0158322111180308
0.0159148705852585
0.0158753631338821
0.0158490274164006
0.0157932070204283
0.0157894943289273
0.0158479161334345
0.0157673313554531
0.0156772347983739
0.0156667320237705
0.0157558159966867
0.015471273275034
0.0154348136712795
0.0154346665699366
0.0154710143931831
0.015485436999639
0.0155215127215843
0.0155380002866254
0.0155470187946773
0.0155468850119789
0.015561376387739
0.0155616446939522
0.0155634030559859
0.0155629323907744
0.0155714614072761
0.015569764176195
0.0155867161890719
0.015609608307847
0.0156125582735995
0.0156724792948914
0.0158123211814216
0.0159005640874252
0.0154446212891745
0.01547126498568
0.0161889172477367
0.0237853198450068
0.0220997377451445
0.0159357563635286
0.0155755051567067
0.0205822246509842
0.0205527264984493
0.0157764017209361
0.0153604013185858
0.019293103648292
0.0200037583777215
0.0156790108135145
0.0154758078610587
0.0186406687390348
0.0185121942766803
0.0155233694798117
0.0153749381264007
0.0180440131810626
0.0180753893147033
0.0155749094072375
0.0153234407519525
0.0171242221444892
0.0172039034191676
0.0154687893339359
0.015722173727525
0.0182098076329894
0.0199874086511295
0.0163434147662414
0.0161649595652389
0.0192465775712616
0.0195369604198776
0.0165618406882041
0.0165846351100032
0.0201894552674825
0.0214808726019082
0.016878452972974
0.0167045899514217
0.0220790718873959
0.02204529370056
0.0219982574241225
0.0158653235046302
0.0162155081726089
0.015638815334901
0.0154915155768501
0.0155889665609602
0.015736492913755
0.0153879186993185
0.015333937381468
0.0154088148100244
0.0154713684828899
0.0153350180490769
0.0152995294504359
0.0153446562414052
0.0153776516131268
0.0152861163909595
0.0152739358401307
0.0152932506899502
0.0153063484590383
0.0152937045075165
0.0152828473711507
0.015303284304719
0.0153164000031271
0.0153162065867613
0.0153031162227186
0.0153241897779447
0.0153406973994796
0.0153270905881897
0.0153101683917427
0.0153210372595895
0.0153353947169677
0.0153481751078007
0.0153349825492331
0.0153343581274845
0.0153472943356198
0.0153471717334828
0.015334220835028
0.015348238306756
0.0153646979590814
0.0153651597547564
0.0153484972231999
0.0153493368641414
0.0153658206092871
0.0153656884901128
0.0153491760988186
0.0154323791120655
0.0154653782956307
0.0154768561935517
0.0154459691400952
0.0154555010761659
0.0154874171776704
0.0155002062834293
0.0154675672288597
0.0154690591682016
0.0155014805881019
0.0157731138849114
0.0156947795086615
0.0157304957139137
0.0158112198394674
0.01589007824125
0.015834631507342
0.0159024266854234
0.0159259903150325
0.0162614368482899
0.0162723006000288
0.0163077135720066
0.016297817932427
0.0167781969438762
0.0166999981977393
0.0172295298104001
0.0173056038186372
0.0189887627584181
0.0185861213393237
0.0208874286752311
0.0447250197576866
0.0408432750725472
0.0203495321033683
0.0204697729762212
0.0429173497776346
0.0451538396642317
0.0204489182530911
0.0207296116465245
0.0430818708591079
0.043596632352657
0.0208236807645392
0.0208983603942667
0.0487472025115638
0.0441160028504728
0.0215235966828909
0.0223727168752268
0.043420789937441
0.0379529566266243
0.0216995276440967
0.0214901916983164
0.0375201314216602
0.0350337218478719
0.0208152072736387
0.0203656233138453
0.0342718013814147
0.0366689845179919
0.0193344935334265
0.0180916012104599
0.0328620153346461
0.0303198601016394
0.0170730167929491
0.0168911443548365
0.0330942833797083
0.0301157450406704
0.016672613419487
0.0166059039366837
0.0274739348019739
0.0252846805417451
0.0165660047438705
0.0165720660234209
0.0242612910645505
0.0228045024240174
0.0165567088047713
0.0161625413128473
0.021693565582135
0.0205092251443926
0.0161125436088538
0.0160585644800003
0.0204442695083334
0.0159891768288461
0.0161026045839094
0.0161623151362747
0.0218312710071681
0.0227399512221592
0.0161453640669782
0.0160510862187153
0.0202822419752628
0.0153283527962087
0.0151294363244362
0.0151342119499565
0.0152866866366743
0.0159373315476878
0.0198892110008832
0.0191135026488026
0.0156807799318702
0.0160321967033681
0.0194297858206011
0.0204126780618837
0.0164209990221718
0.0167965652762628
0.0211232824564091
0.0211287622457008
0.0166112210616174
0.0166571019682195
0.0217147253327906
0.022465872033959
0.0170417409111174
0.017028134977182
0.0231016302835075
0.0234129573016297
0.016900238820333
0.0162608062309663
0.0159072737646331
0.0227986786873564
0.0232477677416012
0.0243608762445347
0.0239087726343076
0.0165017777592602
0.0169710940859061
0.0159410037356703
0.0157490639885286
0.0161476866585663
0.0164222253526994
0.0155841682375321
0.0155159682105029
0.0155450468371792
0.0156100296997975
0.0153992956556108
0.0153665202333784
0.01536492856963
0.0153967669369889
0.0153063568341945
0.015293181107063
0.0153141293844888
0.0153293455283404
0.0153290359280831
0.0153140042381386
0.015335719054876
0.0153540178201112
0.0153412421317431
0.0153246242351742
0.0153361733708923
0.0153501620077274
0.0153636906127482
0.0153509931180143
0.0153501351719099
0.0153627992946398
0.0153628985835312
0.0153502638592206
0.0153353305652572
0.0153484576437176
0.0153631531269207
0.015350580172433
0.0153498992763409
0.015362573474297
0.015361440286997
0.0153490856792273
0.015348934490101
0.0153612951993472
0.0153783635189213
0.0153627925807045
0.0153632735460479
0.015379167073807
0.0153796238709705
0.0153639282776786
0.015363786365391
0.0153794821362175
0.0153935002321809
0.0153776219041872
0.0154579790714676
0.0154883782925959
0.0155028185694867
0.0154708772382518
0.0154830858030693
0.0155158639421293
0.0155175960381408
0.015485098241439
0.015707295096295
0.0157839006981007
0.0158344446067045
0.0157534268687268
0.0158590584714433
0.0159155300915498
0.0159573659653512
0.0159367462758072
0.0159731216666221
0.0159868265671573
0.0164750139816953
0.0164741228011662
0.0164960148055397
0.0164917694658167
0.0168559907925332
0.0167876948889998
0.0173259641189135
0.017393924719604
0.0188434303151709
0.0185872591617891
0.0207417006197679
0.0475402771981489
0.0429343182903861
0.0203459199028212
0.0204063444846912
0.0462766841368828
0.0517780675207878
0.0207723085519116
0.0186489469255274
0.0188689651881547
0.018949313885857
0.018741510779003
0.0208643546849621
0.0569221311748488
0.0502092049629873
0.0205138042215136
0.0207072815289551
0.0542317608060243
0.0492892696800824
0.0204773064687543
0.0209164083586456
0.0479484761268429
0.0538296616261899
0.0213893488398155
0.0211443591081851
0.05500319904706
0.0503929389925445
0.0238967263719922
0.025182706701686
0.0485979042357603
0.0415624417839725
0.0235565517986196
0.0233859663140785
0.0412447669594803
0.0384680490912006
0.0221596083792109
0.0204571766278494
0.0370630503082367
0.0432249978369438
0.0211300582095223
0.0197044906805637
0.0404561814916711
0.0449679148313563
0.0189552821618598
0.0183229961262938
0.0404515816385095
0.036461852507815
0.017373802339537
0.0169599784711303
0.0339368209097273
0.0310308335113598
0.0167953913838379
0.0166957076294121
0.0284671405976237
0.0261632312166359
0.0166152032462486
0.0162392052103523
0.0244415827279598
0.0229171609367446
0.0161918370685321
0.0162057254558709
0.0230209903295516
0.0242607562237094
0.0164369010029112
0.0172900956917518
0.0257036532670557
0.0273733347373463
0.0175703760885798
0.0174059255371232
0.0281551961293845
0.0301940339497288
0.0178902289711842
0.0173552354025444
0.0298205616355808
0.0259249098610272
0.0166487911093509
0.0170568427410689
0.0256935270603652
0.0238430920813906
0.0162327695420432
0.0159967885944984
0.0221046498378252
0.0241996752661826
0.0165851287526547
0.0162752046669738
0.0216278544776236
0.0221133977936499
0.0168608351900299
0.0161225803218339
0.0207023842948371
0.0200648921762585
0.0161555785839831
0.0163401948302836
0.0209188127407619
0.0218098061954271
0.0167729182758132
0.0168875587451902
0.0228810869159157
0.0227292639413458
0.0167356795669757
0.0169333123823258
0.0233675126877901
0.0244066159790197
0.017315114112654
0.0175524853788622
0.0248783359422477
0.0247787116106864
0.0174294566450285
0.017960907634186
0.0263577416346359
0.0256521405429678
0.0252077131989847
0.0171485644898705
0.017698704694539
0.0183640774274602
0.0179113926412191
0.0268409373368501
0.0271577983097582
0.0279753768860899
0.0184746055497178
0.0187924735382753
0.0300482820437076
0.0292392845321707
0.0293367287488976
0.0189586328621165
0.0191192770308136
0.0185226560674473
0.0180689709508204
0.0178094940315995
0.0183821635445782
0.0165061841575207
0.01624673984374
0.0162309733409263
0.016495538410068
0.0156223742642017
0.0155514639184682
0.0155860250046969
0.0156549584162753
0.0156311907514829
0.0155710442536735
0.0153900242504412
0.0154233114115787
0.0154166110502628
0.0153855776745428
0.0154062416313076
0.0154374323545253
0.0153548327207623
0.0153362340585089
0.0153484265853447
0.0153641043596518
0.0153783295015631
0.0153641223880924
0.0153629903169952
0.0153771897369403
0.0153765525942124
0.0153625123495162
0.0153511831447626
0.0153639359078819
0.0153798418151556
0.015367577444816
0.0153669440354054
0.0153791476743626
0.0153779494979949
0.0153658244273368
0.0153660409048673
0.0153781489337438
0.0153938507172045
0.0153813978666973
0.0153653738623032
0.0153782690856388
0.0153772789122866
0.0153642676108072
0.0153632540483634
0.0153758891485561
0.0153756902346844
0.0153630781849596
0.0153766214075924
0.0153922727985844
0.0153934193672048
0.0153772978193198
0.015377762808582
0.0153937000233182
0.0154079378598087
0.0153914114912542
0.0153912544617519
0.0154076467114804
0.015499882088731
0.0154695289576342
0.0154856134384988
0.0155180744145991
0.0155315802306155
0.0154981322068171
0.0155006371950142
0.0155337746331633
0.0157953584477059
0.0157192240463654
0.0157751857993554
0.0158574760665311
0.0159414530927657
0.015883389150456
0.015907722256856
0.0159674073347816
0.0160157960566774
0.016002314765632
0.0160317705563026
0.0160450215171215
0.0165989893033991
0.0166117874927567
0.0166256202460187
0.0166025872750512
0.0169386616478339
0.0168812690478911
0.01744154338389
0.0175051528730856
0.0176374492029238
0.0175732673886462
0.0177171357815042
0.0177817251692395
0.0190523851829301
0.0188573611046041
0.0209913011915504
0.0631137784472618
0.0549486743823313
0.0206563641280989
0.0209860397022618
0.0600215814558328
0.060917831027029
0.0219103327812129
0.0212912887029363
0.0612282227458516
0.0577639813216455
0.0242754848699399
0.0265315512880163
0.0614057840765757
0.0555735307065252
0.0269044144325617
0.0271637342057889
0.0524163928743958
0.0452060841702799
0.025041539590199
0.0247345365446206
0.0445214990305771
0.0483926279383358
0.0246778635530449
0.0233695827012851
0.0480251799543477
0.0519907426795175
0.0235228041519971
0.0215830475664428
0.0495282014331136
0.0445261907152113
0.020230278848704
0.0197473304676119
0.0499116673752723
0.0448162005658858
0.0180738973961015
0.0175975768433084
0.0408537285681346
0.0372223756714978
0.0172349782136767
0.0170283671850483
0.0347289046331722
0.031722820411994
0.0167979508807512
0.016628798268489
0.0290529470518893
0.0266089509442483
0.0165279264162618
0.0170824461364402
0.0259855561663373
0.0268286593390021
0.0175974773847524
0.0176870955677256
0.028475965532273
0.0307518827729803
0.0177837916473871
0.0179645032293325
0.0334199924366445
0.036391700148257
0.0181436904575002
0.0178508306322212
0.0312342982170332
0.0338993585128656
0.0184581535809825
0.0179124719307313
0.0331148413438828
0.0285334231225666
0.0170640258557862
0.0178761092425957
0.0288595045445977
0.0313486273533052
0.0190636301290268
0.0185571831463297
0.0298930957419443
0.0268497256828881
0.0170030434954114
0.017412586381162
0.0261314453274821
0.0285878285784656
0.0175204127662719
0.0173406108420546
0.0264786365256895
0.0247279038822302
0.0172421428288172
0.0171675490374617
0.0231081034499264
0.0219106138741415
0.0164740528173367
0.0164039871683912
0.0215952628944531
0.0226999763474678
0.0170324912280862
0.0171199840740622
0.0249678753155698
0.0245741817217259
0.0170069944316669
0.0170001117942849
0.0244671797233008
0.0252843256296735
0.0174852109514671
0.0184824369234507
0.027394715036021
0.0270124461502846
0.0185065696213603
0.0184122146378282
0.027628022873333
0.0281523692199832
0.018887574649828
0.0191575553149458
0.0306956643599021
0.0332296736082012
0.0192725048371246
0.0190909055550188
0.0323753629856302
0.0314822434186874
0.0321676678042614
0.0190749619796073
0.0196333188576556
0.0183092204268125
0.017963937068686
0.0163308485688909
0.0165832886148123
0.0165301656307029
0.0162901894421024
0.0163324218278897
0.0165380060645607
0.0156878202515461
0.0156200812418386
0.0155936368792661
0.0156482728249747
0.0154492695098936
0.0154143273036594
0.0154271926402462
0.0154576118027378
0.0154723717375207
0.0154439273784446
0.0154354576428518
0.0154612297042079
0.01544924269986
0.0154245202832059
0.0153639929956193
0.0153783900678754
0.0153955595650143
0.0153817678229018
0.015381446994235
0.015394950434937
0.0153937438720214
0.0153801227837479
0.0153790719750356
0.0153924831439014
0.0154094571312913
0.0153957176738652
0.0153839078301163
0.0153965636282943
0.0153952705924734
0.0153827166570019
0.0153811750654592
0.0153936101373529
0.0154098006071301
0.0153966589497695
0.0153966461256457
0.0154099538296964
0.0153936936088
0.0153800411926406
0.0153784354273238
0.0153922035619923
0.0153905270753861
0.0153772374876954
0.0153770376501735
0.0153902536492007
0.0154063294135488
0.0153902621101681
0.0153911142363348
0.0154078160416822
0.0154225231908803
0.0154052690726275
0.0154053973330166
0.0154224992251817
0.0154221063758816
0.015405219449241
0.0154813151450806
0.0155116510890593
0.0155335277131084
0.0155005474291704
0.015513542827369
0.0155476858254738
0.0155503761357262
0.0155165729773257
0.0157315479860755
0.0158073524885858
0.0158804873266616
0.0157970852768354
0.0158189485717124
0.0159033294699542
0.0159934249725757
0.0159319625587118
0.0159561527570715
0.0160194952654576
0.0160740191106125
0.016060421239352
0.0160897447850779
0.0161035174664669
0.0166901213015794
0.0167238128091815
0.0167339348805048
0.0166891608991102
0.0170269092908612
0.0169802804514898
0.0170784992754876
0.0171196835736987
0.0172143482636651
0.0171841417104557
0.0178693290752893
0.0179303551582405
0.0191702435710325
0.0189896630894065
0.0211410176873872
0.0701714316573293
0.0603419122120743
0.0208261601964193
0.0212058329985258
0.0668689756054244
0.0694575281037596
0.0223490931357046
0.0214803719569172
0.0681964948373347
0.0663347804834796
0.024061753908308
0.026210041624101
0.0708796770646446
0.0620744676639266
0.0267208416259331
0.0250649801612812
0.0513884046298733
0.0468479251165544
0.0249539576852288
0.0246659203411462
0.0458975304407382
0.0492296023483129
0.0246548276519726
0.0248000026684556
0.0545878890286042
0.0616261769489535
0.0252000422071776
0.0234808524099899
0.0564080862754683
0.0630245974648395
0.0243826927394922
0.0227869008261533
0.0608177494126102
0.0499247623839654
0.0209451704742739
0.0208878564358959
0.0554270677583068
0.049199849191672
0.0187129970562653
0.0181222376825501
0.0465780620242039
0.0420737275858953
0.0176773578746214
0.017317126739983
0.0381638585286142
0.0397665654572041
0.017934316670332
0.017637081794382
0.0358946602998284
0.0324606703651923
0.0175095476002347
0.0174474574779776
0.0295921298119231
0.0173859025715219
0.0173265406200349
0.0174186004674857
0.0166927784317234
0.0156554328435605
0.0156109204729966
0.017007923218702
0.0182631771588111
0.0309190166070915
0.0365723191751098
0.0182111587244508
0.0179609104323745
0.0336999340983995
0.0308704546827242
0.0177304187051106
0.017768859174307
0.0301741625481151
0.0278792275121923
0.0172910244361942
0.0178477039999698
0.0295039103724327
0.027363302106749
0.0175199281577647
0.0172696757151798
0.0255871049303695
0.0242201533438827
0.0171077048066102
0.016580238337566
0.0233003209115597
0.024566146838953
0.0167623701966518
0.0170014653494098
0.0260893577471869
0.02791831757672
0.0175156893277624
0.0173182723788094
0.0260015743180333
0.0244032932669437
0.0171743957712785
0.0171457946699086
0.0162072449288462
0.0170366541906404
0.0246001026755756
0.0234934758889919
0.017158685909724
0.0170496657153878
0.0172432743316011
0.0165301653515875
0.0174314141701156
0.0272055154204404
0.0288749891524666
0.0180132670124088
0.0173415959638894
0.0175988843272871
0.0180302257051413
0.0327329895566865
0.029897003309813
0.017595376134288
0.0182118316537196
0.032035708660461
0.0340091072186063
0.0191416242766069
0.0197442348260054
0.0310371622555293
0.0312401022682957