/*--------------------------------*- C++ -*----------------------------------*\
| =========                 |                                                 |
| \\      /  F ield         | OpenFOAM: The Open Source CFD Toolbox           |
|  \\    /   O peration     | Version:  2312                                  |
|   \\  /    A nd           | Website:  www.openfoam.com                      |
|    \\/     M anipulation  |                                                 |
\*---------------------------------------------------------------------------*/
FoamFile
{
    version     2.0;
    format      ascii;
    arch        "LSB;label=32;scalar=64";
    class       volScalarField;
    location    "1500";
    object      omega;
}
// * * * * * * * * * * * * * * * * * * * * * * * * * * * * * * * * * * * * * //

dimensions      [0 0 -1 0 0 0 0];

internalField   nonuniform List<scalar> 
209453
(
3.61254187058576
8.63310243890736
29.5166309347983
27.1834601368618
7.67659253852839
7.4153361476762
26.2353481854588
26.5414118967031
28.1535937233494
5.8149336408932
5.56820661815239
2.92979075903029
2.73375251700678
2.8909276628684
3.05223962503477
6.10722436878832
28.1689985474079
29.1578651644208
6.08395809215709
6.23197121714388
31.0734394171932
29.9401595811942
6.4591578676627
3.24837039252555
3.05264186678187
3.30362755446183
3.4957825973876
7.25677413558596
31.9399305093885
33.2848527089742
6.90167287291389
8.88698951519093
38.330233129634
37.0206530768152
9.45038297211754
10.0942575281022
35.9643096652992
32.1666411870372
9.11631825964597
10.1073132543182
35.9766007282281
34.7376184980974
10.2585377507087
9.78399001359452
31.0071598446115
25.663533582218
8.13703456012637
5.59074697074177
20.3732061289905
16.8696845611184
3.55627753088445
2.38846548772729
14.47955647722
14.0528729956442
14.3078949859553
1.08329568434996
1.0991219113003
1.02230194344571
1.0038944789522
1.00292162876737
1.00200555881245
1.00596428355357
1.01296833462384
1.0285479954728
1.01318964122945
2.48490987273265
17.5239303151033
15.885414746098
2.40821371236613
1.15515201349525
1.81382018948227
16.0655071335093
14.4258421801666
13.9025837843014
15.3789557209466
1.15330761563053
1.15752439305055
3.88394442933516
18.7305173177338
20.1815821811878
3.92605767486602
1.33466043410847
1.38299402918022
1.39071239318219
1.33772938066814
3.74289145765602
4.01209849563414
4.02960826731452
3.75335494746372
2.63636074288491
2.66383748879909
1.39960795513135
1.34259550637405
1.11176629869142
1.14339234717387
1.41873587330208
1.28927123817122
1.40502490413441
1.5091369654832
1.54038232012518
1.51006167986178
1.65388000976297
1.68991303644271
2.10250728676309
1.89012251439486
3.87659041830273
4.34529751963039
5.64161664695986
5.47244624427431
11.4916757143039
48.3311764002446
46.155172117098
11.5406178131548
11.8612197224893
44.4666185052503
39.9871874779005
10.7002349219652
11.4955196260793
41.0195634759265
45.5605804012221
11.5822518624856
11.9820028968053
47.0156565420128
52.2138669376613
11.7291822630083
13.2959106444297
61.2220899260415
77.0479084940938
20.7180883556175
16.2116122724673
58.8080108850638
50.9761690375412
13.4453585536479
13.8744715366451
49.7383788432367
43.6189126251534
11.7479298276117
10.7289607327336
39.62316205985
37.171420398444
10.4255200719861
8.2265842995031
31.4278473554109
30.0127461942631
8.0028940413665
7.76046295011041
27.6901625146635
23.865502651446
6.7384638095412
7.31349019570534
24.5630242336344
20.412086061902
6.11821126282405
3.83067685979859
16.1769670692826
13.6650914065501
2.46337840696833
1.03664375839214
1.00859572672985
13.8942970500549
13.2922696711807
12.1490817038268
12.0440114873272
1.0030388181677
1.00997255554337
1.00308934866651
1.00125303437221
1.00309958327104
1.00943527709329
1.01168550011479
1.52895197523134
1.47065939671104
2.1860411785512
13.1957282000202
12.7852564892631
1.78348131546014
1.00577478196038
1.00165570554793
11.8553295154631
11.9247128045634
13.2253408828192
13.9077559261351
1.00409471875331
1.00982521165476
1.00100981137175
1.00057645226102
1.00020881431516
1.00038928908506
1.00090386163074
1.00038149576567
1.00067156575082
1.00296229658116
1.00119343072666
1.00040592629606
1.00034051155303
1.00050670748585
1.00009567442893
1.00006937649801
1.00014995088963
1.00027033936828
1.00064399878294
1.00032653060142
1.00065593523633
1.0025826788818
1.07167214314737
1.03808736500603
1.00431617722803
1.00820582982174
1.03102561433751
1.02172467425978
1.03778474974398
1.04979143019092
1.0734311243433
1.06268388624089
1.17272580591839
1.21252215571477
1.25385300028621
1.21488654561109
1.26656473546671
1.30693657115532
1.39485977342476
1.3414578078309
1.44567924486636
1.50845478117247
2.54419084777922
2.29985439003986
2.55531605996854
2.71722185654464
5.71499344730211
5.55382280480697
5.54861549138757
5.70275806218236
11.2127583404068
12.7862696739237
14.4805899058975
11.8628880945544
11.4743583402846
13.7419857109912
20.4597036422646
88.6863229968952
66.3605244791844
16.2609813124956
13.5476014973212
56.9346509846275
59.4258370543762
14.0890531782138
18.8805787633785
61.7972539545242
54.0929652335068
16.5174753763355
12.1379428001066
40.7904118137212
35.3099762091258
9.43552724779822
8.54370544648195
32.8562226962911
30.8747807328763
7.96043385668564
7.93474568881189
30.1850491131276
29.6301711742864
7.96665774885587
7.96781931577903
28.1143516492185
32.9196877670167
8.67872152361199
8.16528366693388
28.1826427407345
28.1863854822146
7.37814987395168
5.40117706716658
21.1722759897546
16.2155253058846
3.59864961395747
2.60661103730721
15.1428642566551
15.9003756141592
3.60419686821994
2.20300234212663
13.4830818227773
13.809419379399
2.07579622138122
1.01103021920573
1.00366838258676
14.9601037544877
13.9559872688086
12.8202296873598
13.6187197811093
1.00311135298067
1.00857454520646
1.00047704686372
1.00020534580246
1.00020600355904
1.00046344948765
1.00048996757002
1.00019292215997
1.00018428131902
1.00055980946608
1.00060514147705
1.00009608600703
1.00002024271417
1.0000172149239
1.00031634553028
1.00037862609314
1.00171524050329
1.00132552094876
1.00691905101439
1.01136046230342
1.03465339097961
1.02454901706455
1.03505930292616
1.04516447940197
1.06204994337797
1.05511844210209
1.05148045624881
1.05811585893494
1.08478486111274
1.07743708849478
1.09247157945592
1.10491378614845
1.14373854295487
1.12910987241564
1.1768929579273
1.1945950060002
1.25920677900714
1.23419579300031
1.26824086860436
1.29858229488695
1.55026091212449
1.48377888683626
1.50710455242419
1.57465839683121
2.59431028482161
2.36039794666806
2.43180959466658
2.65260056979818
2.85891021804049
2.73115361563839
5.65626862827679
5.82036716704358
5.80315134953637
5.6293749898304
6.28438348381103
6.28750443015622
11.7586632676413
14.2051848108993
21.1344468180542
91.9572377472338
69.5492020719313
17.1295671816938
19.8688254399408
26.5988062830156
104.229812845077
77.2120366910091
66.869492218175
15.6833100593638
17.7221386448603
76.8120922022727
88.3921259284769
123.361756545334
29.6836812703473
21.2113074062466
17.0652021170004
17.0899753444615
17.1641183350259
17.0994163570393
21.6270711588778
29.1690780744766
130.129476656392
93.9974936388065
88.9933975406183
21.4454597761082
21.056543795821
91.2514153065561
90.7861336376123
21.2089722950074
21.0812918716756
83.5087120420455
19.9883303143543
10.9694105647414
18.6314680761318
69.3305287747276
52.0178321061184
16.2856673044587
14.6921343758502
44.7538504767641
35.4428714139537
10.1415055001567
8.23582712777084
32.0903005936703
34.7851768808097
8.50507843276321
8.42538969916617
33.9523533532897
33.8926237383109
8.48367108608489
8.61986221331607
34.3430398159122
43.7805918776052
9.61469221661805
9.96232963569582
40.1163152170034
34.0043279114835
9.07666352474192
6.66214226258725
29.7448360901084
25.3125436057827
5.9081272129677
5.48435293003368
24.8844438626427
18.5318726536791
3.65197506495424
4.79448825865865
19.0576287718785
17.7774339356674
3.80031624424788
3.29550195214569
15.7710725902241
13.4752329866253
1.81011073196352
1.45467188067719
12.5243392163351
12.49173581537
1.4225485490156
1.0076775628927
12.805199945662
13.6019592372395
1.0027516618844
1.00038073684241
1.00083813167838
1.00058941328735
1.00021131891858
1.00018491428703
1.00065391465144
1.00078961554793
1.00015306077166
1.00009367136176
1.00236274617336
1.00065999200086
1.00040120092004
0.999971305985926
0.999958927322538
1.00159706247674
1.00148076168239
1.00644901922598
1.01643763990335
1.03617169213308
1.01671205763256
1.0021865909102
1.00437631189956
1.0908849708517
1.05113199053014
1.11516324916389
1.16417329090844
1.19406321079169
1.14055966256318
1.17631588061655
1.2306234808198
1.07664988809299
1.06422705769206
1.09444136563861
1.10750151920975
1.0902809199389
1.08188552405557
1.11791240043931
1.12656540040482
1.12020206128967
1.11164902487333
1.15783625581671
1.16812385960262
1.23192655299018
1.21407735000859
1.24984174598227
1.27475215205862
1.30286533960683
1.27107532026125
1.31575737287341
1.35590874792853
1.34799498184296
1.30856998719918
1.52744754617744
1.59838929452887
1.62228263863957
1.55506580759464
1.60357743898896
1.68025711526213
2.69789700676752
2.48969036152854
2.98948655294324
3.01774805596593
5.995757278889
5.82756472666898
6.55810479504664
6.46906066994734
8.58806998131923
8.96565784425397
16.2917329769556
13.5592107321345
8.1562033229603
6.72217605655436
4.57601306194777
2.67462980500267
2.30389842384517
2.3195485471705
2.35448310206633
2.33025174053432
2.28405975664226
2.92710594322422
2.89216758952054
4.68654019668153
6.73389111219413
27.2565721825411
23.2922060677712
5.82647038384752
4.52319219741841
20.7466964691214
19.2692605504296
4.16691688508293
2.23713053967898
15.2193713372563
14.3935427593271
2.06101364562083
2.00699645431875
14.3146855826983
13.4181606014064
1.77346044516032
3.19509702906436
15.6313189044773
13.7467393447589
2.01509536300389
1.01090479381776
1.00331589307043
14.9114810684311
13.9176112427046
13.172022802485
1.01404471799037
1.0085725874845
13.8527956029024
11.8119535378685
11.6874947140305
1.01081233491954
1.00693820911915
1.00032305194233
1.00083240248045
1.00080285377663
1.00030156249395
1.00047752116196
1.00135111430331
1.00233918902702
1.29710877376643
1.34586660756021
2.17883042750037
13.414771883239
12.198992536829
1.6245030447487
1.93144569404786
12.3458474530811
11.8566928527406
12.0248777923891
1.00250087534531
1.00902073135757
1.00233786439991
1.00054556690563
1.00177043315185
1.00909587706895
1.01910429799167
1.00180738554911
1.09893479778658
14.2885422170717
13.9182946442481
1.10836919986125
2.523237838034
14.3626941810811
14.3825697345775
16.1561021013687
1.65860362220736
2.34043424623279
1.16160644264268
1.15075705827235
1.18521430690517
1.16842726114773
13.8977378616319
15.3720833162411
15.495725758235
13.6983143943562
4.46610363855414
3.90305823905676
19.1208688796757
17.711750221166
16.7646009208924
3.54546156255347
5.48875142096121
19.9951035951345
22.9946838079967
26.1277002469736
6.0455443525616
5.71516760799299
4.21559403698104
3.60825958572306
1.36613776080972
1.47481646686685
1.48606160695326
1.3739162232041
2.49395577588641
2.72824881793551
4.22166766642691
3.61820669460372
5.69175346650514
5.70823997002704
25.5114323849746
29.561491291846
28.0189706778362
5.72406333026901
5.83283560710446
26.4048969445831
26.0434093813045
7.50993252164048
7.73294050532636
26.9077427713785
27.8522602906873
28.7694184554481
5.93006677842352
6.28392517764318
3.05083831064546
2.69611419939417
1.41527124075965
1.53796034335119
1.57044244216098
1.49576954225961
1.21709240884446
1.27053052390155
1.31978486173308
1.26763883933199
1.13328280695224
1.14539397848639
1.20099799932519
1.18857404599763
1.16862186435478
1.18149543637684
1.25412965820511
1.23311635144831
1.27798429481541
1.30630486950804
1.27979516882689
1.25387409857523
1.30702201127847
1.34244609665377
1.33106489632789
1.29676995981448
1.3501487833696
1.39922269272075
1.41923104294093
1.36566852828105
1.35644852749192
1.40835515607632
1.653687787948
1.57467429942431
1.59595587982628
1.67344165737518
1.70814022116818
1.63214783804398
1.66272487135615
1.73116691999591
1.73344732642295
1.66191661397437
2.49139302647916
2.67580524663497
2.7521983098494
2.56660630596144
2.99861534520721
3.0523289779958
3.07305626720286
3.10538419334103
3.44777965690511
3.07953401256709
3.03589277593139
3.00741180018864
2.98370282359026
3.02921388626412
2.71191056073598
2.51541576156807
2.48421779271595
2.67954642991854
1.70017521019346
1.62537565856968
1.62909630821491
1.7013379358679
1.73152728430285
1.78622920250964
1.83495345809288
1.8486482105005
1.85429696614995
1.88526040022215
1.88154135350969
1.88804212992845
1.88927060511603
1.93432880880527
1.92498346162426
2.01179911587019
2.20681817546261
2.21623473377949
2.51589320701879
3.13999553340488
3.38816006369347
1.80474788913301
1.84865739020343
3.86835993665427
19.2770629789207
17.9431597733074
3.35958188189471
2.71791241185069
16.347190460848
16.816658350749
3.21576564571902
2.28052323117665
15.208974646132
19.0872887438575
4.18722441221906
3.6357971707826
17.5225504900335
17.8778483616604
3.98687836777186
2.90018161792397
15.8586435679997
16.8111041787966
3.9139062957343
2.81903765597953
14.2387111057447
15.3744159634515
3.36645464122586
4.43053559775677
17.8733272746676
23.1679548213146
7.02886935131378
6.12974416509267
23.0535709362226
25.491723870942
8.16541602518995
8.72405058854692
26.3664100350797
31.9312324740331
9.6421965124383
8.62445371615167
29.2465559221877
29.6529310855224
30.7212252697732
6.02653881191793
6.5671843920213
3.18529245309985
2.83015169903109
3.04430200011187
3.39913641622956
1.66892222538195
1.60613975074934
1.79668789111612
1.87506012681809
1.39696364577478
1.34255349532976
1.44615695729528
1.49868470963822
1.27797273067164
1.26054936969166
1.31283026922423
1.3376190673978
1.30628428488499
1.27801356074801
1.33995059613731
1.37835958526055
1.37343891205259
1.33500764108922
1.39850210637128
1.45413136408936
1.41686518928486
1.36411406402833
1.38870619952281
1.44327874836079
1.48301535676412
1.42776208452576
1.41843786257441
1.46480560561982
1.46898767342815
1.42079118351606
1.43784529280194
1.48565417358245
1.47813100566897
1.42387187185779
1.41698872194841
1.46404412757862
1.46585472680999
1.41566763531419
1.62815821128637
1.6976267060521
1.73246486812342
1.66515880448391
1.67537292150865
1.7461226436765
1.77591443261401
1.70293553738111
1.70308853995384
1.77139637120921
2.69125446575547
2.51076086614486
2.6231572766365
2.80018172206934
3.10863391576088
3.043320786233
3.34263801478599
3.23812357072429
4.60015834459119
4.95315630934566
5.00971139009936
4.6662025262408
6.55278635087351
6.64655160651201
9.15236042641149
8.72702685340039
15.6494916705952
15.6276532243417
26.2824643837218
114.88240551335
88.2477274180943
21.0845799665289
21.0609382177284
85.6895204154237
84.7685731134722
20.5239438528113
20.8346093171345
93.7374205466099
94.9297658163087
20.8933273718627
21.008786421783
98.8186935000759
81.9928326627075
21.5090916307618
23.3231206525733
75.4288407443047
68.3771039049439
20.7557746790964
19.9982187871834
65.6330775766009
60.9819947353122
18.2980175319893
16.8285807585062
55.1121023272166
49.3559147391357
14.0699010197941
11.4603555332966
41.3974862717507
36.876228721603
9.45934608458441
9.79068379008756
45.5393252982264
43.76620544663
9.44585296428758
9.42664649233924
42.6935453371661
42.9401379967384
9.47875790879293
9.6219216748094
42.3300039418683
43.7509315485958
9.7372840053587
6.95321117732164
37.8526711643968
33.400204638589
6.88057672168107
6.72204552259224
33.4566375096434
6.05888928737102
6.74113085667383
6.93138874709669
33.362281555966
27.4249590084495
6.41150180538631
6.33457010731181
23.4703844942973
2.40399822450011
1.15089422239619
1.12291695108372
1.92923997704851
5.41134375778302
20.9369380808606
19.65417545484
4.0604741431087
5.85321842940844
21.5027670507347
29.2663822110155
7.77923800911315
9.11573466006803
30.0885649437189
27.7961389261206
8.07704380925881
7.87795270326126
29.067363101858
34.4506906141311
9.92445815767456
10.0234812183115
35.6444364898363
32.1989586421685
9.23833454566404
6.64764687151225
6.0625838581777
31.67121028088
30.6280438219728
34.2023143462187
35.4270103631793
8.06808161411715
8.93150097887104
4.00988485069122
3.56732018674503
5.15522508824525
5.79253276545733
2.23959374712826
2.13953203498734
2.21911240619188
2.32133565818228
1.56242602529969
1.50477200104234
1.50722862968377
1.56272364864066
1.33600170034408
1.31227991977873
1.38324625048351
1.41920701989411
1.41548477392523
1.37970943090999
1.45867097810682
1.51421908762883
1.46750891390122
1.41012578768749
1.44667302757504
1.50180186506605
1.54982508027411
1.49742101785259
1.48102260058755
1.53219296376396
1.54263338589214
1.49107338260582
1.44583896361109
1.49626551439947
1.54782699012548
1.49715961770845
1.47262677668047
1.52799262000778
1.50832846743993
1.4614397607868
1.46398594496601
1.51115131560282
1.52841048289522
1.48338509466611
1.46593688810468
1.51894155013097
1.50482029395885
1.45581145660356
1.45560478412979
1.50315926438242
1.53889058438877
1.49111755326947
1.69765317231579
1.76863457718852
1.78424133508107
1.71459474058481
1.73994490955512
1.82009710314726
1.80925589387763
1.74089540992034
2.53055450969995
2.7119232867663
2.85742500860756
2.67861795276602
3.10102808668317
3.17003084454666
3.29923986862089
3.43556769994396
3.53836056982771
3.36914862666117
5.29976282869738
5.61244810559069
5.60975211007673
5.28665277980232
6.68556595809044
6.7701507086933
9.29976820005895
8.84441972690128
14.7832030417519
15.2865720792654
25.1131965700617
105.880656570389
82.6083139614189
20.8062822155711
20.8057240373712
83.4211411400266
107.608561497075
24.8940549559357
15.2542880310793
14.6404319863396
14.7551042290433
15.3887742921784
25.033506687396
111.60938730616
86.6994822060603
21.0318736933768
20.8198864624632
92.8032589078167
87.6574064670141
20.3997288924793
21.2486435277862
99.2290252823173
106.491483789474
22.4052825969869
21.5663462551665
106.975643976422
99.5830942205819
27.9070501517407
31.5359918652424
101.182055673144
88.7872593632989
26.8858315631503
26.2253714321914
86.5068966329826
77.5160060699654
22.6215050704273
17.0513515279222
63.9011736260459
77.3687440723455
19.1169984555569
15.0090883877332
53.5919092593971
55.2469089081914
13.5116517443561
12.3206622318559
51.4919730972649
47.9487852398927
10.6314461162416
9.89410919367494
46.1276705719852
43.9805368472873
9.68666897216478
9.62499639266494
42.4242638048139
41.6841829748641
9.58339584464331
6.92698901334874
36.1000043115774
36.5501577488149
6.90280900171809
6.78433139416566
32.6801518030415
33.1560054719346
7.36899256566562
9.2599683932168
31.6598421442996
36.7887214399952
9.90223395033958
8.88148696017739
36.728012396527
37.7343159645956
10.0562606821541
7.92223287308773
28.8102775428033
21.0716418081168
4.924276234957
5.70754550664158
21.543325139063
19.3485424832936
3.98865042071871
3.51038905032121
18.4824727043312
25.9558208544046
6.31221822257969
5.73691295590236
21.8901860911614
27.8880927527056
8.48273344687124
5.79241490577345
26.6157716532536
25.7940757399105
6.31551733910804
7.01517049042221
30.066867762554
34.8951654393597
9.2570512413967
9.27074641715217
34.9075229548194
30.4329981705178
8.29793937061015
8.70153479484949
31.7652105285757
37.7303736883718
10.7843640943687
11.7792411852034
39.9676605697364
37.9862902090091
10.9486999169777
12.8383391549865
48.6176308769466
42.8806155012257
44.6058780787283
10.5318201189513
11.6122564765592
14.3906221914143
14.041557479044
58.5810420534224
53.6988253760521
59.2439057113537
15.0332298569372
16.2759703250196
66.6233441610723
64.4726206945157
77.3604085738434
19.4733601212602
17.7037017352018
14.9836116318804
14.5327221654376
13.2889014876257
14.4005486135969
6.01149476012345
5.42170370482669
5.4026637643996
6.01793225091107
2.36276629995167
2.24137247939794
2.36660848933121
2.50025858550828
2.41805207924555
2.30827915251535
1.58922402611605
1.66071650852179
1.64667469735698
1.58149810874884
1.67485494968587
1.75402113730514
1.52896076942508
1.47381444399307
1.52598182352157
1.57621528354701
1.64859762422425
1.6013066549465
1.57633079189705
1.62920497035028
1.63224649131737
1.58018799028504
1.52394943509788
1.57722050592473
1.65840786257332
1.60182933612612
1.56040076624805
1.61571405700233
1.58736525331877
1.53623005362736
1.54610710955741
1.59900138295211
1.65713040146248
1.5986508918336
1.54408174220012
1.59780311636062
1.5707768014794
1.51279215122521
1.49913435738264
1.54926110192208
1.5505625146827
1.50228674927047
1.52471311312407
1.56996290768384
1.55844416589977
1.50439871264158
1.49133614329494
1.54444741197347
1.581846099152
1.52423921709398
1.52413600879964
1.57384453863435
1.80491632896076
1.72812716570282
1.75189740334015
1.8260195282168
1.8644440782128
1.77720360565174
1.77911635659049
1.85368124482947
2.73719761615414
2.5537997769748
2.73678013991142
2.91840710294387
3.24376048602298
3.16376503864741
3.22995770977025
3.31601400180411
3.42929371846796
3.61637243466635
3.69763393441073
3.50067850941263
5.64268023860219
5.98568105276897
5.95332164482209
5.58425769826447
6.87435186482579
6.9366908656844
9.54342000250877
9.07960876400449
9.43055141580664
9.86804167018536
10.2568144443073
9.85590673093862
14.9794217168724
15.6331329663739
25.3399075216166
117.157206724128
91.1455875482605
21.4256737095926
21.378050744776
98.8220506893601
114.86411706856
23.5732529500837
21.8530569240927
115.538534278775
115.673802559336
28.8516933730643
36.503630909561
149.013199040381
151.229539852417
38.0387130033148
39.0441108436833
135.675980050342
117.743059368637
32.9570919667186
31.8217306861349
115.939000559233
121.670210446894
31.5559145213634
26.8461711074247
109.604788735199
108.336934792623
27.3259425262546
20.5377772175185
79.2314882939343
56.0984807056301
16.5675214871651
15.1178271685094
58.2023964560908
53.6682171995027
12.3180301553074
11.1673555863856
51.0222311302965
48.5013948807581
10.3890063234445
8.80264127478902
42.6662402943036
40.9668595866822
8.19031519834025
7.77946385263748
39.9081908050634
37.9278721250245
7.59302112135312
9.1838412519692
38.0100326000674
44.360424038893
10.6515589884745
10.7389376522055
46.8553546255519
46.831943413784
10.7429043800408
11.1310209822669
48.1457820463771
49.9378276902997
11.4874347279305
9.65619370008303
38.2817668663609
39.871237415498
11.1586548376014
9.39918023682856
30.6140633817604
23.3436521763286
6.06565144824892
7.46979678843613
25.7986678441891
33.8681170049797
11.0586794538373
10.1230446984228
31.5701351057931
27.4755061176188
7.20102528699574
9.34713475551399
35.3434510792815
44.8082218837464
10.3964779670797
10.0172264498413
44.2322957210137
44.3876836576034
10.0999991049781
10.1140077514963
40.1738658268823
35.5524830637319
7.37324454481726
7.11846091536836
33.4616039843556
40.4753121134174
10.3345006791173
10.1857305279088
44.6238345118414
35.7157827463636
9.30442772041223
8.85625089895344
32.3133804358547
35.7552128549596
10.3505816421259
14.8259909412849
46.5978697181106
51.2043160387386
15.3868462735589
14.8734547573726
60.1849697101515
67.9617960610149
17.3409769026259
18.3546657791583
75.3118080794162
79.0985517700305
18.5810682271432
17.3201203352218
71.7603831790109
74.7364009630497
91.0997653209417
19.7623998978219
19.9293955252968
14.0217499833367
13.7804199937651
5.71233768699635
6.32354888260928
6.15098513081208
5.58071801088899
5.76841911581853
6.25508334446218
2.66707556465898
2.52103520438439
2.41499912029337
2.52517098831725
1.78748186086281
1.69933203022596
1.76457980981356
1.84487701606595
1.93641958286509
1.86351171523137
1.84364952234094
1.91174287784126
1.87382895851617
1.81558048961655
1.63172299175721
1.67791534733609
1.81302961221511
1.75816289804906
1.71310429192093
1.75945920310909
1.73672571391458
1.6789719678822
1.66784730871385
1.72599109530361
1.85439702941892
1.78712800939531
1.69559200488012
1.76003906453653
1.69740997430622
1.63779649601016
1.59648959647832
1.65116442128237
1.7299735711963
1.67350052601412
1.65010267386661
1.72204728116748
1.64740271878527
1.58851804839367
1.54958449778825
1.612717834638
1.58621877225406
1.53241254984247
1.53503152074135
1.58654502584741
1.60936139247926
1.5616327399479
1.53946440256928
1.596537462583
1.63292470433026
1.57343278375373
1.55584388882847
1.61658853805172
1.60786526038873
1.55581898166922
1.75845183211011
1.83988645857341
1.8702555339514
1.7902234453247
1.81582827807335
1.90946011150131
1.90026660006105
1.81936664441451
2.58083490008056
2.76515537313808
2.98137602385197
2.79842855087339
2.86115240113142
3.04540761436989
3.39807412568662
3.30009387486444
3.37248853432048
3.47741056709141
3.56836403700965
3.7801029731458
3.86805293330073
3.64480305032175
5.87474308355908
6.25633643492534
6.21577416811306
5.80669915676562
7.11528920129652
7.12867418155484
7.3165234131401
7.39805731304266
7.70399885119608
7.5394960611141
10.6946718878721
10.3322522685124
15.2844951597251
15.9651445365437
25.7843244004896
123.417700783628
96.0049984364131
21.9639893292347
21.8624574313993
105.325372587169
123.724474582182
24.4709853200451
22.2417061968083
122.677356429654
121.776315536821
28.1924610673574
35.2107893717136
153.99591602374
147.685341612785
37.2422160425267
32.6358333939548
118.951041545455
126.522633822404
32.4940760429741
31.4857969606935
126.681985701919
118.296676962566
31.2985719232163
31.6273135142666
119.643995491946
126.703181787371
32.6770914700616
27.043914353075
112.555691650148
124.654314188901
29.6569902536711
24.4539023162776
91.4239601215357
59.3446128412386
18.9237537191529
17.4890470280429
61.4686290060362
56.4767513640562
13.9909134993299
12.2102368794978
49.6491002530955
47.0415111934552
10.7613762253226
9.63680006142279
44.7154240603703
52.504069877292
10.947695357177
10.3195764764701
50.1576572331585
48.3159729660592
10.0989355480763
10.0764751077578
47.4435655402305
9.65936213160163
9.01800006598957
9.09763465212246
5.84642786295334
2.5104271298103
2.3842819735342
6.84025007347486
10.8924572369382
41.3635236969842
50.8173450926115
11.8699726477089
11.3781162878642
48.5656563050231
46.2328921314422
10.7806099603265
11.1615475179666
46.022845284237
38.75988152676
9.33158533296944
12.1806436592102
44.3209802126591
42.7771091448983
11.1137584190239
10.4761797548284
43.0403293128783
44.191799467572
10.2549702237148
7.49830032025045
39.0508831781968
37.8064928369024
7.8501928575121
8.45684270699265
37.6620598700468
44.6005637042797
10.4977551711664
10.0806822242107
44.2603705583857
44.7385294008476
9.87757163889695
9.74538185131308
4.63060679996736
8.36494384694794
34.8438574808563
34.3530922082466
9.44385045805434
8.72271389054667
9.15076788016118
5.52513851303354
9.00830726569897
36.0204999418322
37.5812778948986
10.5313270630387
9.1299208858418
9.90279176900251
11.8739418290166
48.1503602987614
40.5256485325187
10.3078660645021
13.4646847012239
46.922628527967
51.9948860218229
16.2586629941394
17.2931228265221
46.7472082398432
47.1020385061126
18.5182219548331
19.1727512232683
46.7206732749137
46.7835791989488
19.8008882265834
21.9244066859771
49.1015513584408
53.1116816603941
21.907981941612
23.6823674710563
61.921300826567
76.5025756432484
25.7213220764637
28.9954719823284
97.1165081606402
102.128413664074
29.9461947696841
28.9284413960368
93.3391970553708
104.4923243657
121.801150849277
37.5936917970091
34.0937522151658
21.3477696719992
21.4001979904913
15.8770539112437
14.7368553966603
10.019283221645
9.65903990268146
8.80272045255283
9.43483628726015
7.92801492628035
7.36349151574251
5.62744220671164
6.01520089027073
4.42001019758937
4.23708544283374
4.22776984888152
4.39704241455533
4.32773285747755
4.15190577902631
3.99980985809396
4.18342819053072
4.12059184662651
3.90669824634124
4.09671439168395
4.31925250519258
4.50548244493829
4.25135176336831
4.20328332765339
4.44929510202849
4.38588049337686
4.12330124449786
3.95192473894498
4.18465050224105
3.83470315782089
3.63020077423805
3.24174537072983
3.41554795094128
2.90150580419611
2.76027929164679
2.44009074524636
2.55258685502514
2.25507251107254
2.1698351644211
2.01667492525109
2.12063323320988
1.91961439731733
1.83697581250523
1.73062425953497
1.81721889436093
1.73247972013912
1.66828202980103
1.63299621177643
1.70078778832301
1.70775315281586
1.64804003860221
1.62848799343985
1.69587317139568
1.67755343220736
1.60824500880412
1.61275785587031
1.67136179563504
1.90018634015337
1.81384364198055
1.86439274354269
1.9575558310668
1.99972203132338
1.8946659719967
1.90440811079742
1.99704206294898
2.81959151751572
2.63545618993353
2.92439322586325
3.10896189165531
3.1715934177305
2.98641660516407
3.44832802890245
3.56591054724501
3.65037954087798
3.52487523640526
3.95833614984627
3.72096046407565
3.80134065035934
4.05380980942493
6.49090714739439
6.08879080170994
6.01445325627015
6.44385618426307
6.6960701131724
6.29218822093887
6.20323480528927
6.64500915567464
6.88463835267614
6.46991398148303
6.35930462130671
6.82773401796706
7.77577830829821
8.00653598751605
10.8410186669156
11.1387455201975
16.3878339536686
15.6821937319921
26.0695766317207
28.8631530260572
136.2859031704
107.917858879228
114.238938463757
23.4047002050774
25.0077688246493
133.239461463728
130.435374147371
22.7137383682532
27.8887693364661
129.210678971521
162.604905993861
34.8925799934896
36.9006683004651
152.924671246532
121.44753058142
33.1090360123305
33.8573592860135
129.187355895196
142.768410671536
36.7290800037865
37.182061241964
139.323045391014
163.15167622129
47.47533838896
32.6367903878955
147.39336529802
146.995617282161
35.6956618720951
36.1098912390004
114.449944762324
97.5315040582638
27.1915171816251
25.9402410623667
82.0990072289569
60.1735592194391
22.505064512424
20.178372721404
64.2829595305966
59.4564940783437
16.2050492135968
13.9477517082223
52.6155184988749
61.9210669615965
15.1279058564613
13.3403122666145
58.3529891017733
55.2463771890052
11.9374179711038
12.1942612813629
52.0986087258506
54.6231686185751
12.9175746782103
11.1938690124379
41.1541981345622
43.7572307897015