/*--------------------------------*- C++ -*----------------------------------*\
| =========                 |                                                 |
| \\      /  F ield         | OpenFOAM: The Open Source CFD Toolbox           |
|  \\    /   O peration     | Version:  2312                                  |
|   \\  /    A nd           | Website:  www.openfoam.com                      |
|    \\/     M anipulation  |                                                 |
\*---------------------------------------------------------------------------*/
FoamFile
{
    version     2.0;
    format      ascii;
    arch        "LSB;label=32;scalar=64";
    class       volScalarField;
    location    "1500";
    object      p;
}
// * * * * * * * * * * * * * * * * * * * * * * * * * * * * * * * * * * * * * //

dimensions      [0 2 -2 0 0 0 0];

internalField   nonuniform List<scalar> 
209453
(
83644.831485559
83659.9758274263
83681.6619435094
83658.8169938168
83644.3519442256
83632.8851123068
83622.9438186958
83610.6838867488
83615.5369015732
83623.6054469503
83623.0608541544
83620.3556184636
83620.3606415035
83631.0312633747
83630.5573477416
83639.1987146336
83643.0419640996
83640.9605816649
83640.4801186643
83653.305683986
83661.6778490026
83667.6945260454
83653.2220376412
83643.748738294
83643.9903756442
83653.9783953156
83653.5523439068
83656.9444767184
83663.5412548007
83661.9105234099
83657.1281863982
83660.5014272977
83661.7803468903
83660.80955137
83659.6016596952
83657.967163357
83663.6304393065
83670.5899103985
83658.1397697143
83657.4619151635
83671.1206058084
83658.2524962431
83653.0441835312
83658.3961309001
83677.686085323
83619.4742097461
83627.095343149
83602.2141110597
83574.3296763524
83581.8320962537
83598.2235588516
83595.0370418902
83570.7226765629
83660.3369569812
83668.7020096742
83628.4939115902
83618.623352111
83612.6221815654
83612.8583397255
83613.3694403237
83613.0280191317
83612.0207792057
83613.4036120625
83608.0275678767
83607.9422379122
83602.0194981381
83600.4461932103
83582.7297629765
83598.1494198735
83615.5740377891
83611.5872003192
83630.3211481106
83667.2598795153
83661.8620597534
83641.7189830539
83620.8154911639
83624.6799595197
83601.0113069036
83589.7280019899
83596.9221766145
83603.4117975654
83607.816335077
83606.7616124969
83607.5149168825
83609.5237144488
83610.2681056788
83608.8065853639
83611.3580764942
83611.93309697
83614.3535804725
83614.423150839
83611.2130288615
83611.7076152947
83614.5479123907
83614.8307323529
83624.0828255303
83623.0582538996
83633.0661390293
83632.6453238372
83643.5949850689
83644.6135071053
83655.3642633912
83654.4741860516
83666.5251431038
83666.8327455196
83663.1472069161
83662.9759183727
83675.2783220313
83675.4345627377
83669.3316269616
83668.6773085497
83666.7403094751
83669.1264710167
83669.6908918495
83667.2477772837
83656.0519804728
83665.746022704
83666.9531470786
83670.9929741383
83688.5537128436
83674.0339372507
83673.8637408342
83682.6763800709
83680.8668555255
83676.9924597354
83677.2427504812
83678.7214379471
83681.1516510242
83680.9033330972
83679.0935552444
83678.9139336149
83677.3720260882
83677.4065317852
83674.8891095319
83673.0744356158
83670.8658719565
83670.4260079493
83659.0148564921
83659.2877300851
83652.4159164687
83651.2550154521
83645.9488713418
83646.9188202116
83645.225996514
83644.4121453063
83646.8682251181
83654.2676216099
83656.1084462747
83634.5361453926
83630.9674158118
83641.0352827932
83606.4383070398
83610.4169565943
83603.0592309385
83600.2467728278
83589.0795699169
83598.2107270151
83608.953538351
83617.4933891585
83637.6157392968
83611.9316381791
83604.3639216284
83622.3514515224
83609.2178152592
83605.5954986539
83607.0618006471
83608.2128813218
83611.5324802847
83609.4915568993
83603.3904645126
83601.3821153177
83603.6666739818
83603.1284844649
83603.243777781
83601.6107802563
83602.7461702014
83602.7736938452
83605.2063987511
83613.928584162
83599.6798413803
83597.8931796702
83608.2489594479
83602.4273520506
83600.092306755
83600.555748225
83601.2098349556
83602.941564706
83602.6348755486
83605.2501535499
83605.3821678481
83607.6145936119
83607.6671267696
83608.2873927361
83608.2705341153
83608.7297691721
83608.6258634662
83605.6391876716
83605.8526152915
83606.0164115001
83605.8113957928
83606.1593594987
83606.3530513812
83607.0691773362
83606.9534087234
83608.0574816072
83608.3488037896
83608.4692854919
83608.2610720246
83614.1527093585
83614.0388006318
83623.4995277692
83624.238476806
83631.3009164948
83631.5868582009
83632.3751193835
83632.010619812
83642.0372387205
83642.6390352459
83654.6215779642
83653.9825767086
83668.5454383218
83668.7949169103
83686.3936471143
83686.0523046287
83680.1576366612
83680.8564650091
83692.0306283545
83690.5859291123
83687.9767799453
83689.1453358356
83683.6536460961
83683.8783011243
83682.3641502903
83681.6453929944
83684.8255565233
83684.7130296719
83692.0261693274
83692.2057349851
83687.7851652655
83686.7928460597
83683.7945393062
83686.4374524197
83684.3810967537
83677.5984681583
83689.4610285951
83691.0548366396
83689.0897324597
83689.649581775
83688.9403554184
83683.9575599981
83668.5234570106
83667.5166128805
83660.7616364872
83660.909941133
83652.768249191
83653.4350331862
83645.9045896759
83644.5372533025
83640.6181532221
83641.9505030276
83638.0512933267
83637.7860530091
83636.2131153294
83636.6606469822
83635.0746555497
83631.9883438331
83625.5148470834
83627.4600854275
83618.209248744
83618.8128179662
83606.8689889276
83597.7410357989
83602.4015346163
83604.9441327235
83603.2691238472
83601.7284196798
83603.0937483931
83602.4960590139
83601.5465215739
83601.3725378425
83600.4050835534
83599.8350847985
83596.6842872411
83598.5123974492
83600.7207954097
83592.677533818
83592.6148096125
83596.6015414695
83595.9539367257
83595.4004675664
83597.9321918355
83597.9023400938
83600.1868884215
83600.1846321067
83602.5984693036
83602.4940015991
83604.521548939
83604.7697201738
83601.9424862076
83601.7868649807
83603.0232262022
83603.2481649725
83603.4282531868
83603.1775916093
83603.4913224049
83603.7676070699
83605.5963231625
83605.3106292227
83610.56425189
83610.4537180569
83620.0071845351
83620.8781612477
83627.592630164
83627.8511657045
83630.3151726025
83630.0531579332
83640.7624827231
83641.2985715853
83642.2562163092
83641.7220999739
83654.7805352701
83655.4713125995
83672.0018428614
83671.7679313993
83692.9893683026
83693.0703498418
83711.1865328871
83710.3113856121
83705.6719392697
83706.6016967308
83700.5954192009
83699.7712114188
83695.9228534264
83696.7993786763
83707.6436508971
83707.529031294
83702.1949779883
83702.3083741248
83697.6890940017
83697.0767465352
83693.4030311209
83694.1070631158
83702.8907674397
83702.2748357477
83699.4259021725
83699.9795426453
83696.1490799375
83693.8316013826
83691.5116961758
83695.0456128041
83702.9698035012
83703.4424578054
83702.6191651827
83702.862205199
83693.4814840379
83698.2305653694
83702.0770109929
83702.8005462438
83714.3704137391
83708.2829812331
83706.2949187002
83706.8814382479
83710.1058442032
83708.8007563677
83712.8937795874
83712.4939993386
83705.2686885007
83708.3042499673
83705.832180439
83698.6322180772
83700.932126683
83706.0200686387
83703.8692516483
83702.2330319479
83699.588300277
83696.576493353
83699.7942003711
83688.858166267
83705.4548407587
83699.1905077291
83683.8760751112
83673.7854991354
83666.6601262311
83672.7375538962
83655.6354123296
83653.1919664608
83653.3995465878
83653.2415983041
83648.9087196271
83649.3976317868
83637.3349562598
83636.7177069559
83635.4472229304
83637.1715578125
83635.8895035587
83634.0781477344
83632.1822647448
83631.3990616475
83635.4281635078
83629.7580261972
83629.9261878464
83634.4558807235
83626.5522143357
83625.7713166053
83619.6140000632
83603.8866648895
83610.3401766873
83613.2621026912
83608.764125173
83598.1451214126
83602.4667200956
83604.8838701937
83602.4718895001
83603.6006219124
83598.7211555754
83598.2821840515
83600.579617046
83601.5238663309
83597.6414362174
83597.5822188036
83597.4748584085
83597.1634368584
83595.1383611768
83595.3400561971
83592.9262997499
83589.2803526517
83592.7138543286
83593.2745333619
83595.3626802286
83595.2821889593
83597.2850311997
83597.351715766
83599.6363535001
83599.6589153814
83596.4257142378
83596.8541821417
83599.8161271314
83599.5132304033
83600.8363651672
83600.9746208201
83601.2955857896
83601.2350634359
83601.876093151
83601.413709652
83600.2821416331
83601.4627626608
83596.0103790205
83596.4353896166
83599.7564651963
83599.3320818685
83599.5276957641
83600.2040695287
83603.9205923329
83604.0259132348
83614.251883561
83613.7656207242
83619.5908860944
83619.191278693
83624.3695222762
83624.612672116
83634.6321210417
83633.9267985114
83637.9459280805
83638.5377374033
83652.7327092618
83652.0360033059
83654.5880962636
83655.2901494017
83673.4598715677
83673.2716752789
83697.7388637394
83697.5856820349
83721.9297701453
83721.3582275232
83716.8172200327
83717.7007947323
83735.1949441778
83735.182782748
83727.8192800644
83727.8294741401
83720.4402606833
83720.3514333892
83713.7309743841
83713.7934525365
83726.9839520619
83727.370056082
83719.5724413381
83719.1543421844
83713.7595750421
83713.9320392467
83707.6245333664
83707.7574445491
83718.1208715555
83718.1419076972
83711.9066370588
83712.0735860705
83707.7741823298
83707.7832574642
83708.7602484856
83705.0805835532
83696.5448520025
83710.8111221883
83703.0713888228
83688.5149791585
83676.1886848573
83660.3919875164
83635.9817646943
83606.6604248854
83579.9297128819
83550.6663301452
83533.3917834536
83535.0842990133
83565.5432750669
83566.7006986026
83583.3025481653
83580.5383335796
83592.8821036538
83593.2471904514
83587.5844750883
83585.8544364522
83593.2657324528
83594.0577630059
83590.5736630735
83589.7966201631
83595.591380549
83595.0697061992
83593.2793342269
83594.1442584157
83594.1530659611
83593.7133983518
83589.8495599279
83590.7187997592
83589.726263234
83584.3538207828
83586.4994646804
83590.1475586176
83591.1657962377
83592.1932209504
83593.8891315809
83584.6763851756
83590.669602951
83591.9474574271
83594.62122874
83594.4018874362
83593.0227743118
83593.2173349757
83593.2738290813
83593.0417948533
83593.9931596385
83593.6563630468
83593.0731184906
83592.2054186358
83590.9426548822
83588.0707644881
83591.3349142911
83590.1286787282
83588.543619439
83587.0477254593
83599.4948983895
83594.1707786578
83591.5949718239
83595.0112929118
83596.1500478151
83598.2828496712
83596.2226128143
83600.2271666543
83600.8863461323
83611.8179943229
83643.4685989103
83640.7658096979
83604.0283123667
83581.17341385
83555.0516256656
83567.4978690036
83584.8449700447
83588.86183287
83584.0282250429
83601.3909804323
83597.622389563
83605.6917190844
83609.4074036042
83639.6478126397
83620.4753456703
83611.1768599958
83645.2098716292
83587.9186871382
83590.9085131143
83583.249147048
83577.2165215785
83568.5693027695
83583.9394594825
83582.8818795489
83558.3298160164
83571.6684478878
83584.4211196565
83592.1566318176
83588.4891577878
83593.3545740897
83595.0433571105
83596.2679134507
83593.8735525143
83597.6867406772
83598.6838358707
83597.9704367962
83597.6918982004
83594.4422916283
83595.6042941407
83593.8159288739
83592.9515164187
83570.048408941
83584.4383735558
83591.9411834288
83601.5996630263
83600.6234581941
83586.3985123661
83593.4342555024
83605.4308278691
83613.4256840584
83626.1095474942
83613.155773726
83612.1686550082
83613.1154412281
83611.4639247704
83607.4243370875
83608.4259222679
83614.9311615337
83614.2939053739
83621.7549292958
83623.1508386285
83628.0064878645
83626.9389475439
83637.6907940941
83638.7170284512
83647.9810558149
83647.3598334841
83665.1682021421
83665.5123792155
83671.4297901958
83671.1143144061
83697.2549522798
83697.1194371795
83726.8875265995
83726.6147251659
83724.5468396408
83725.0035722242
83747.5894505492
83748.0574521361
83742.740396871
83742.4742370129
83763.0789014087
83763.9188784904
83754.0791097001
83753.2442614579
83744.4320603117
83745.0344124642
83735.404058396
83734.8586925895
83743.613105856
83744.701263402
83750.0551798539
83750.2067609388
83744.9596149592
83744.8418429415
83739.6129176937
83739.7876778042
83735.034225059
83734.8575063736
83731.3456548909
83731.4666023447
83728.1501271185
83728.0501840975
83725.2079584667
83725.3263951253
83721.0711463845
83721.2485801748
83721.1637208063
83720.5724610593
83724.5822710438
83725.2781003797
83727.2158633287
83726.2342790632
83729.9598499672
83730.977507842
83734.4300541076
83733.3153420832
83740.2574446907
83741.120665317
83745.5232940515
83743.6110850748
83759.11843448
83758.8911926998
83755.8315424903
83754.2799245581
83752.858848695
83749.9984770759
83742.5907311699
83738.1556472955
83731.5884497486
83716.8018550816
83695.3775501129
83668.3093141445
83631.3024661059
83589.1191247843
83559.1982743248
83542.3597751315
83525.9309618068
83510.5350993562
83507.3802408111
83549.4479440827
83552.666562883
83575.1991186103
83572.5261489228
83565.6597062277
83567.4171097779
83582.3965894075
83580.7483244288
83577.9788106754
83578.6655709396
83587.98639537
83588.0396867046
83586.6199290978
83586.9732508232
83587.2282739571
83585.5380341898
83583.9604137837
83587.8390341946
83590.2008730979
83587.6932544809
83585.1522832095
83587.5818410877
83589.7036837992
83590.3972902555
83583.9571452582
83591.3901078469
83602.0012114509
83631.3834249109
83582.5181864671
83595.0566425172
83598.2770211291
83573.0704125255
83649.3302232376
83625.7339513577
83624.403734694
83644.9721846332
83632.3608719858
83627.1452649919
83620.3943337392
83619.9064429645
83615.4054396352
83616.4927264162
83620.7156690944
83619.6487699159
83630.1974459453
83631.1347562116
83638.4626190125
83637.7319469252
83651.4684732189
83652.1566324383
83670.4086003125
83670.5740540379
83689.8247307919
83689.5736880265
83723.6124068599
83724.0975663338
83726.2133270881
83726.1648990629
83752.2715942409
83753.4508255858
83752.7564600515
83751.898294847
83777.0054670448
83778.4000932344
83771.62889112
83770.4925957268
83785.9802668121
83787.2224768145
83795.4060121184
83795.6408285811
83789.9090341004
83789.7078548556
83783.3128392253
83783.5963760199
83777.1959952717
83776.8826433905
83772.737019351
83772.9416210313
83766.8012291391
83766.657942177
83760.3113828879
83760.5413510434
83754.5623590342
83754.3588392662
83763.3563540652
83763.5779066887
83758.646705571
83758.4741547406
83752.337409834
83752.5506976022
83747.7066311936
83747.4992046325
83741.9449429754
83742.2566669529
83738.1776121955
83737.9287323552
83733.3795703858
83733.6785733505
83730.0539391223
83729.9538266622
83727.3687318522
83727.172074417
83730.6362100472
83730.8247512474
83726.7204826014
83726.625377675
83720.2454234189
83720.3982413882
83717.5319375222
83718.224491175
83716.5220984265
83715.5036137797
83714.9269708052
83715.3342400383
83713.661436482
83716.5343231379
83722.0794550368
83720.0449413456
83713.9820581357
83713.868958351
83697.2309372213
83704.5351547734
83716.7653704219
83717.1902768561
83713.6880356834
83712.0281153317
83700.5218194853
83703.5994755838
83695.5486854203
83691.8072326292
83678.2693659884
83684.2654261894
83669.1431573377
83666.1765898943
83649.9263852998
83648.2121061883
83632.814818242
83631.6350235082
83635.9903174283
83634.7087267272
83637.4745137295
83637.5820304908
83620.1439836802
83620.1139090419
83622.5999714105
83622.7035461888
83622.9568347374
83622.9962660221
83624.6321771409
83624.3172625808
83618.8323662416
83621.1123661961
83633.1187332
83626.3269122178
83621.0207182653
83630.9432249317
83615.2650810241
83612.3838000616
83621.409155786
83622.9317729391
83618.2863991677
83612.260564888
83607.7511685001
83618.8815467243
83588.2908402774
83593.3602914515
83602.058147785
83605.2771242653
83599.776371867
83594.0398442992
83588.1832501757
83583.0927288699
83577.560472319
83577.9561052183
83577.2220947918
83580.8970131001
83583.1513333785
83574.1082561977
83585.7632230679
83583.809086049
83588.8934394284
83594.3945654253
83593.3901783972
83593.5764082592
83598.5617610419
83595.3435618822
83610.8737635197
83608.2115971965
83614.8022531659
83628.5956681768
83630.1743083656
83615.8723823599
83615.9453674473
83616.9788908668
83620.5360886412
83621.8434865085
83610.0474899577
83611.0981554316
83610.9724602387
83608.258710825
83620.3816629758
83621.960675417
83621.2339945305
83620.0363268548
83646.988127178
83646.9956861895
83665.4795071784
83665.9864161311
83682.5516826212
83681.6030311334
83701.3427375857
83702.1505735415
83713.7787418075
83712.9876467157
83737.2047106995
83739.1644332541
83749.9268374208
83748.4549394705
83774.0245453564
83775.8412642898
83780.1989658321
83778.4802323061
83799.4925018936
83800.9577919315
83809.7308852911
83809.8754460298
83807.6508130564
83807.4192237947
83803.0377024761
83803.3583344301
83798.5688024225
83798.1820955199
83810.4094530245
83810.3729098904
83806.6924904319
83806.7771971584
83800.1329806996
83800.1103398132
83794.6593714548
83794.5992105186
83787.5796191588
83787.7445121571
83782.7647311245
83782.6633995204
83775.6550583692
83775.7767681094
83770.2025473792
83770.012439191
83778.2769643084
83778.3967018574
83771.6601802882
83771.387762566
83766.05875628
83766.2542509516
83759.9903919787
83759.663872741
83754.4087318932
83754.6201625611
83748.9109117452
83748.5686162171
83743.8933723673
83744.2123293376
83739.4086364895
83739.0298596634
83734.8620272432
83734.858796712
83739.766590155
83739.7274361721
83736.4725346963
83736.327988797
83740.3404734366
83740.4405384896
83736.5354959602
83736.6065780213
83730.7174097272
83730.2107936703
83725.6855194912
83726.9976070406
83725.8817175482
83725.049426767
83724.982921499
83724.6020822088
83731.0781848039
83729.9416653825
83731.1863068593
83732.6905431344
83735.2640735779
83734.132726267
83741.4105118745
83742.4126752241
83738.8195276836
83736.7542365475
83735.2519746523
83737.1883802316
83732.4314225805
83732.0519419151
83726.2350641009
83725.9546677287
83721.289705697
83721.4749270269
83729.6563186509
83728.2020692552
83725.5970923455
83730.3731313751
83723.6852226961
83719.3967852891
83708.9348623737
83712.3525440647
83699.2066229172
83695.0087203388
83681.7968259224
83688.4112505638
83673.4752689523
83667.3405690821
83654.5825313238
83664.4134966118
83648.7564935757
83650.0913991436
83616.0027316454
83616.7803062418
83585.671029434
83584.5453466351
83603.826190167
83604.6709716873
83614.2305131695
83614.374078712
83599.7674566061
83599.5504788934
83605.6093660088
83607.3994562115
83612.270592946
83611.7635685498
83613.6239621537
83614.2059178505
83603.6997593873
83599.3274251727
83616.8459602243
83612.9029876693
83605.4430296568
83615.8289736814
83578.8274303631
83593.0421718201
83578.75300463
83572.8036551491
83559.4457197349
83556.3682932374
83537.1375058449
83543.5194863603
83494.3866718705
83497.6824621625
83463.1532000295
83461.5248874103
83437.0916600788
83436.5320789737
83405.0374507323
83411.2011608112
83486.3931489645
83487.2147358989
83539.5242208634
83536.8306446715
83533.3588578487
83531.9242057609
83561.9134496086
83561.4665370133
83552.8843301613
83558.218378693
83569.5246399432
83557.5605168665
83578.1226533499
83578.866883701
83570.4315244961
83551.8157609334
83569.7017397484
83569.9413561377
83573.0768448898
83577.0456007571
83587.4910229344
83582.25319734
83589.2325830507
83594.5316923532
83596.831507921
83594.1762286099
83600.0758846932
83608.0290199057
83612.1134538478
83603.4496309115
83594.3308478942
83591.722434562
83598.8784241218
83602.224144652
83605.3954789119
83602.5701930899
83593.7480689504
83596.2030167722
83591.6371629448
83587.2475874489
83580.9055681347
83586.1059578459
83577.9857143394
83575.7363918937
83582.0950169959
83583.71427117
83585.6956303686
83584.2614339679
83588.5825779798
83589.3707578334
83599.3838863567
83597.9870561146
83603.9181934521
83604.941592666
83626.3033588579
83626.1662278229
83643.8638489781
83643.7216545716
83645.0595253788
83645.7414063718
83671.9083571502
83671.0482838423
83697.109178772
83699.1294594042
83721.4265235032
83719.3897850334
83738.4413566794
83740.39048134
83763.5892841455
83761.7669218852
83783.5640534875
83784.7518984139
83789.8968089241
83789.8200222372
83799.7407965601
83799.7023941435
83804.4455977963
83804.6748207846
83807.2787074061
83807.0172841811
83819.1290466431
83818.6290649189
83820.7270009964
83821.1596524535
83818.6549371884
83818.4099631592
83815.599065872
83815.8144258192
83825.277321099
83824.6835499583
83819.5275884509
83819.8728316084
83815.9067393464
83815.6298415927
83809.2356625636
83809.3873022451
83803.6587353839
83803.6025485004
83796.620734584
83796.5617873254
83791.2272717104
83791.3100261832
83784.3867229669
83784.20709717
83791.8463214622
83791.8389993524
83785.6507341572
83785.6636066704
83778.9332796151
83778.9939008334
83773.2019921055
83773.1881122189
83766.8007032604
83766.9280096777
83761.0370563555
83760.984662238
83754.9983483497
83755.1487167587
83749.7912345458
83749.6114388339
83744.2366168636
83744.6213958208
83750.0821563092
83749.8037129278
83744.9271755774
83744.8660792
83750.1787657527
83750.1578754884
83746.6243797157
83746.445207419
83750.5835386931
83750.6855854134
83746.6610294671
83746.706684545
83740.5177422619
83739.9972243645
83748.0595178047
83748.6096925418
83755.3662820256
83754.9010655995
83747.6348187031
83748.5855464389
83744.354786995
83742.0570279443
83740.4735047227
83742.7293959933
83737.7598696586
83736.7701458488
83732.2492923344
83732.0633371077
83726.6040041247
83727.290893605
83716.6593712723
83716.8644442386
83711.0934092085
83715.6283832968
83711.1463881563
83704.1429294313
83706.0020043179
83705.1543732292
83694.0085418097
83693.0067026535
83678.9063448631
83687.9990893482
83666.0354463886
83666.9440688617
83667.5536640931
83666.480027316
83649.4020542605
83659.4845142548
83635.3596893673
83632.2321180364
83593.3782732056
83594.3073586289
83555.6935462217
83557.4423338142
83532.0215223917
83529.3797440609
83561.1161053655
83562.2703893005
83584.7836551632
83584.449944049
83560.6211508489
83561.3999037563
83582.8755819666
83581.2805062853
83591.3732140891
83586.0134074577
83601.5984804226
83600.5170724075
83591.1449376072
83593.5934249682
83575.2591978538
83580.0020750154
83570.4376574126
83578.5877158259
83555.5076830994
83551.4581195039
83519.2180693511
83516.3004091207
83493.7671619108
83491.2986241799
83470.2048507221
83474.4967415809
83419.4364970669
83421.5798400996
83378.0161288349
83379.1526831638
83353.6049989768
83344.3564226367
83312.4315451514
83329.5156882956
83322.5181753538
83303.5775721659
83364.5540016549
83361.3609572166
83463.2983661706
83464.7150116242
83468.6455045733
83462.9667935759
83454.8050093504
83459.2021591469
83502.0155125523
83504.1624294852
83545.2458564504
83534.7710915955
83542.6285994449
83540.720131405
83557.4942646727
83549.1197775603
83557.5534843182
83557.2292489696
83555.8729452754
83551.1361070389
83540.2760328653
83546.8082902222
83544.5073158
83546.33316444
83558.0468977941
83557.6284349124
83572.6107647072
83569.8113590194
83576.5037914321
83577.9107028303
83589.8632263846
83586.2373018536
83582.6099350458
83568.84833506
83556.5544951692
83570.4396305183
83571.8634921284
83572.0205333074
83561.6569703356
83560.5252804054
83563.6568685386
83563.641234711
83566.4458524182
83566.8968312989
83569.7104309657
83568.6634531694
83580.0359795782
83580.7562738745
83596.1540999692
83595.8898297985
83619.5725072161
83619.5037603845
83611.3011681527
83611.4217629119
83643.4757147477
83643.0675314822
83675.1528765208
83676.1774206372
83711.9243350005
83710.38154612
83725.0576526861
83724.880472998
83721.1720092369
83720.9921588004
83742.6636852907
83743.1526630622
83759.4381215716
83759.2345825412
83776.223741174
83776.4575493767
83781.75462344
83780.1618374697
83794.7092794695
83795.883071158
83808.7023665648
83807.5952983989
83814.6436672337
83815.2816614282
83821.526889809
83819.6736654984
83825.6928635751
83827.1228088597
83830.0239604976
83828.9589068538
83827.3327571854
83828.1031098225
83832.6471833288
83831.5503822744
83829.6003170063
83830.4642196828
83825.8650555463
83825.2804470439
83821.6689134174
83822.1472677324
83816.1131438337
83815.8189840113
83810.4332672666
83810.6793920641
83804.07986396
83803.9549470636
83798.5018550792
83798.595912415
83804.7082761419
83804.5381400265
83798.2973218091
83798.3754486224
83792.3984927628
83792.3314039657
83785.9195804339
83785.9287525888
83779.892404278
83779.9069816533
83773.5499751074
83773.4912152136
83767.393001327
83767.4577342138
83761.4116900173
83761.2802508683
83755.5352913841
83755.6548503503
83761.377257959
83761.2338334602
83755.1840652111
83755.515838181
83760.9064187531
83760.6645532258
83755.4710580715
83755.3798027701
83760.5154205315
83760.5119925725
83756.7156927651
83756.4539581814
83760.1768872043
83760.3399276771
83755.7756432062
83755.6019625001
83763.2068618306
83763.6075122546
83769.6879274685
83769.0680018439
83760.5634248369
83760.1886485167
83752.2317805916
83753.1859918354
83748.4640326253
83746.1387352979
83744.3540454614
83746.6898086998
83741.4875527267
83740.0245689994
83734.5381435135
83735.0858306272
83729.3980988709
83729.4157703116
83721.9890308528
83720.7876447372
83712.2339387462
83713.9800393245
83702.0681191407
83702.6299302693
83690.6510040431
83688.4088941985
83693.1389035158
83691.4218499879
83679.8012383116
83680.2480268614
83678.2579255518
83679.1873587369
83676.1892767346
83675.3114334866
83677.1024754586
83674.5516158083
83659.2438801378
83664.9118332129
83641.7841826434
83646.7736032373
83610.9413086234
83608.4483366906
83562.2934744058
83560.9997282522
83515.6763870235
83519.2768810634
83492.4491633214
83487.7303749935
83452.5491150143
83456.877302073
83499.3377557923
83497.3743457246
83532.6653397037
83533.6084104105
83506.9042314939
83505.8043467994
83534.9869074427
83535.596991833
83565.6337841025
83562.4586280516
83579.5722562599
83584.8747122731
83573.332367757
83559.497161988
83530.6678383193
83486.9039856208
83441.6469202305
83389.6525839834
83345.806786094
83322.5161364501
83320.5674889294
83304.1722749049
83301.9159119331
83358.4587614005
83356.3040772588
83418.3234037598
83415.9866684773
83405.9096678573
83404.821331194
83397.9543457699
83398.9098282429
83391.7472929046
83390.6785822602
83451.3304291389
83453.2225088588
83501.605446821
83502.0788735956
83541.0760021818
83535.6684651641
83535.1062085142
83536.0823729974
83505.0591614944
83502.4892452216
83455.8834915832
83454.929126556
83452.4514248104
83454.2226881417
83499.0626527222
83500.2684382376
83539.3421602322
83532.1105880626
83532.3937439734
83533.935143719
83508.9265316762
83515.0944284643
83535.1992234416
83536.0527889847
83504.2249932387
83464.982793937
83466.6749915824
83428.120283062
83434.4614944014
83368.9828025209
83371.7974169857
83414.5901324225
83351.9757023074
83345.8668594335
83346.3203004947
83331.580836353
83329.874950948
83313.8601311754
83316.2611791394
83306.2826227503
83305.2055305759
83314.3437764184
83314.741612956
83312.2876566234
83309.3246783573
83308.3217137329
83314.1327354252
83309.3316378301
83306.2334670846
83305.6256580857
83311.4399246057
83285.957227702
83294.802828214
83295.1776587336
83282.7471588379
83292.857824178
83297.5635632638
83303.3547609396
83302.4131611325
83310.6908566601
83310.8138028678
83323.2996420979
83323.403885396
83327.3724008538
83331.5933745116
83332.9244972582
83329.0438955947
83331.7388723573
83333.6196649142
83363.6645380312
83364.3705785247
83373.2737593994
83372.8627163956
83384.2446060875
83384.4270010904
83399.3259434489
83398.7880019828
83414.7952904858
83415.5637827392
83432.3142867369
83431.2853199371
83446.806586256
83448.0234772939
83462.076274912
83460.7757633809
83471.9917265255
83473.1620494981
83482.7346358602
83482.0425780753
83491.0149445246
83490.8107012826
83504.0167260716
83505.0300132013
83526.4129618199
83524.4266117434
83563.9519642636
83566.1273231433
83625.4931140941
83624.6449534787
83694.6963331293
83694.0689574582
83752.3597495582
83754.0280640687
83786.938727734
83785.1304492775
83801.0488076113
83802.5882514314
83809.9390834303
83808.4558101033
83813.5555208496
83815.0778265821
83817.6136152082
83816.2515341701
83818.569227429
83819.7436944911
83819.4857652017
83818.5351879844
83817.6899713133
83818.4985743648
83815.6272666369
83815.1132435295
83812.1551656608
83812.5267836269
83807.989973272
83807.6903294814
83802.90287571
83803.1146106853
83797.4848596241
83797.3944321248
83791.6682939485
83791.7149555804
83785.5187348812
83785.4968399399
83779.2938937219
83779.2568536894
83772.9592395991
83773.0443350869
83766.9235990121
83766.8441856449
83772.1727423413
83772.2385733733
83766.0884857505
83765.8107723553
83770.9282161674
83771.1149992291
83765.3631259513
83765.4955103263
83770.1069158426
83770.0538738277
83765.606648644
83765.9328222785
83768.9237630144
83768.7030995218
83773.4138348523
83773.7579141913
83775.8146241843
83775.5592877615
83779.132823325
83779.4923324699
83780.214498574
83779.8944510659
83772.4450383146
83773.3434176764
83763.36653486
83763.568939488
83755.8581665333
83755.0600586492
83748.5648813186
83750.3170793656
83747.9316351446
83746.5099067952
83742.5726067234
83743.6866510224
83737.0126556749
83736.6324242194
83730.8038894598
83731.1802748561
83722.31405138
83722.6266947061
83711.8752372572
83711.7383840267
83702.1815314023
83701.0957131116
83688.6395353807
83689.7592361449
83688.0066599005
83687.9857132316
83683.8541960345
83682.8952526942
83666.6166946981
83668.5363993886
83661.5802590406
83657.9318624323
83642.9236332359
83646.4594258268
83643.2399641099
83644.0915055385
83623.076587986
83619.8304189837
83592.0022698135
83598.5251481308
83558.6910842759
83552.6633979081
83516.1254513432
83509.154282797
83459.0251531403
83465.4298938186
83441.9311143445
83434.3170757862
83398.5457503192
83406.084963173
83380.3822725099
83374.8351401345
83425.1627215631
83428.7774430553
83470.1830947845
83468.2089203657
83450.9727379346
83449.6434147644
83416.2090357556
83410.8962678031
83385.909979795
83392.1831697455
83328.7702161976
83325.7392569
83290.4114109831
83289.9433224167