/*--------------------------------*- C++ -*----------------------------------*\
| =========                 |                                                 |
| \\      /  F ield         | OpenFOAM: The Open Source CFD Toolbox           |
|  \\    /   O peration     | Version:  2312                                  |
|   \\  /    A nd           | Website:  www.openfoam.com                      |
|    \\/     M anipulation  |                                                 |
\*---------------------------------------------------------------------------*/
FoamFile
{
    version     2.0;
    format      ascii;
    arch        "LSB;label=32;scalar=64";
    class       volScalarField;
    location    "1700";
    object      k;
}
// * * * * * * * * * * * * * * * * * * * * * * * * * * * * * * * * * * * * * //

dimensions      [0 2 -2 0 0 0 0];

internalField   nonuniform List<scalar> 
209453
(
0.01580447327488
0.0168268660951259
0.0223829144099742
0.0212619668829723
0.0165572703921654
0.0164653907803653
0.020829854293594
0.02017879831232
0.0197705792209678
0.015790689138273
0.016011377278128
0.0155310797736492
0.0153832741585161
0.0154601812199965
0.0155980680981387
0.0161720906555878
0.0211260924488344
0.0208375497978053
0.0158860094695528
0.0159747943408844
0.022244880712566
0.0223608432998139
0.0162940276713878
0.0156829111209624
0.0155347723607423
0.0156196440277618
0.0157714952318596
0.0165423460451286
0.0236468448312924
0.0235490654610685
0.0161768582781016
0.0167388088942812
0.0247209195215068
0.0249201412250839
0.0171695934842732
0.0173108972573586
0.0253205811096907
0.023800260642046
0.016973739040805
0.0171460927099237
0.0234345760908304
0.0226891257039492
0.01715167431276
0.0169901213471905
0.0210298496996225
0.0196510365708523
0.016579432716584
0.0160329567608949
0.0186255125161124
0.0171719240104108
0.0155530625896524
0.0152644637735754
0.0163347257401505
0.0157512187213416
0.015314178704214
0.015026294970392
0.0150622846046756
0.0150494543116615
0.0150148251829882
0.0150111331723487
0.0150081607247565
0.0150231979417074
0.0150384004321151
0.0150745642938931
0.0150476952561589
0.0152259550673826
0.0163415764195141
0.0163916072658337
0.0152584572992269
0.0150607480660155
0.0150872177258625
0.0156036962258434
0.0157018211349701
0.0152726564815042
0.0152904935625259
0.0150252626417339
0.0150264926659271
0.0155448828706277
0.0171624344674665
0.0169934049483557
0.0154243617437697
0.0151092503345881
0.0151671310375313
0.0151829913847374
0.0151177747541437
0.0154491702707074
0.0156440941227397
0.0156660550751274
0.0154657663583189
0.0153237749582527
0.0154462124612607
0.0152039215279515
0.0151313458968876
0.0150871151716689
0.0151273864045952
0.0152114942827302
0.0151445803937538
0.015201029052534
0.0152672981764801
0.0153158341743002
0.0152605041351527
0.0153291932288061
0.0153913928408195
0.0155298134934642
0.0154184778747185
0.0157799406736171
0.016005322015282
0.0163347586520583
0.0161714767353158
0.0173918495835514
0.0262350700924939
0.0263026130822725
0.0176852478321465
0.0177996771087601
0.0267303368289952
0.0258502502732832
0.0174965293573275
0.0177575709210311
0.0267361365238561
0.0276179094332713
0.0177817078428638
0.0178448106135163
0.0273442368991674
0.0278060788539688
0.0177380328125692
0.0177952335847023
0.0280171286649798
0.0307043195454434
0.0193204397433613
0.0188942317212518
0.0297778797597891
0.0290358084700397
0.0183278626892502
0.018539003625817
0.0307735064307346
0.0299221657602019
0.017831801840285
0.0174057746968201
0.0269013155303915
0.024679079997643
0.017248409167804
0.0168035309728565
0.0238085814176193
0.0221854682261858
0.0166954046896658
0.0165814869879092
0.0207669433301385
0.0195442079688217
0.0163203275823201
0.0162470640114298
0.0194023009754798
0.0184878975673104
0.0160178251017983
0.0155546117533289
0.0172471347321781
0.0164286422556017
0.0152819646709679
0.015054819917814
0.0150200955187393
0.0153218679254168
0.015828007681206
0.0158364264385758
0.0152869895608338
0.0150116233744584
0.0150342848882276
0.0150180200471883
0.0150078731026285
0.0150132606684369
0.0150342617477842
0.0150387218631127
0.0151489622222369
0.0150953528014931
0.015187120471572
0.0164385910875179
0.0164407602434009
0.0151168405403637
0.0150164060990753
0.0150045179303918
0.0152883783193441
0.0158302088256501
0.0159096333390933
0.0153437151443444
0.0150013309162133
0.0150126087907606
0.0150085673711335
0.0150047146457405
0.0150025558482491
0.0150049821116721
0.0150085752197042
0.0150037893496778
0.0150053366421412
0.0150157565729555
0.0150105730832719
0.0150050125262086
0.0150033176372814
0.0150043872009036
0.0150016723389313
0.0150013650787892
0.0150032416356888
0.0150043784861834
0.015008762876464
0.0150060836633594
0.0150074485845713
0.0150168155502427
0.0150630756140399
0.0150326859289889
0.0150197664891621
0.0150292734624816
0.0150756469273657
0.0150560422664616
0.0150820755053331
0.015099754741522
0.0151326050751103
0.0151177542444711
0.0151571323211582
0.0151923110439829
0.0152353129500671
0.0151996933012162
0.0152430444464293
0.0152811215760727
0.0153340180666188
0.0152908797986386
0.01534460276004
0.0153871629651628
0.0156680534537262
0.0155509263954709
0.0156314173286896
0.0157298651725333
0.0163811540183554
0.0162295998181389
0.0162305343829795
0.0163735280182065
0.0176248241962983
0.017719045636128
0.0180743153863934
0.0177919986286118
0.0177322492952522
0.0179604136964804
0.019292668391277
0.0321910143552442
0.0312273848866429
0.0189167914369113
0.0183995241615633
0.030867136111998
0.0323784763839432
0.0185777382140151
0.020242224668907
0.0344454547374025
0.0342209990504147
0.0196412345974105
0.0184322823772628
0.031035835590941
0.0280325434361558
0.0173033556874316
0.0169410088100559
0.0256625992899531
0.0253261849779691
0.0164359414936406
0.0163862173359609
0.0236286257536915
0.0221418777783074
0.0163739673500862
0.0163751506603663
0.0207218251046612
0.021135554269599
0.0164333191509863
0.0163603951898726
0.019495905661237
0.019271621647092
0.0160933971365973
0.0157615050121777
0.018403838367152
0.0172328637241909
0.0154241989378253
0.0152511933578127
0.0172105488252911
0.0174151780817154
0.0153793486081774
0.0151596438773237
0.0165732332852654
0.0166609579451931
0.0151422705364968
0.0150112250889984
0.0150038396772569
0.0153738831630807
0.0159613293779808
0.0159023025080687
0.0153415417256824
0.0150023049077013
0.0150088617854851
0.0150059471544717
0.015002623743558
0.0150025872263615
0.0150062187769849
0.0150063703107255
0.0150024519245643
0.015002437964724
0.0150064926916961
0.0150067854992675
0.0150017066773289
0.0150009380568504
0.0150008461608191
0.0150046411954115
0.0150051304289462
0.0150150449715594
0.0150127458578054
0.015030640236711
0.0150398197271401
0.0150867870572855
0.0150687934125286
0.0150938719407116
0.0151068149569978
0.0151362166673612
0.0151271999047595
0.0151143110537341
0.0151248294287066
0.0151584300018286
0.0151486116651063
0.0151545140907579
0.0151691729169828
0.0152067391432783
0.0151911278556446
0.0152284455206857
0.0152450824154621
0.0152819141231412
0.0152656248539277
0.0152854371523606
0.0153021626392556
0.0154078510949263
0.0153663759093769
0.0153744142532627
0.0154171048014196
0.0156992602572224
0.0155875132094708
0.015626636842934
0.015732433981971
0.0157843071795057
0.0156963133386279
0.0162981352489045
0.0164412242553668
0.0164307851305817
0.0162883939509022
0.0164802863933502
0.0165937610076904
0.0178439331572072
0.0180980340489012
0.0194807702713837
0.0355300970587188
0.0335304172981313
0.0191752710236779
0.0199656929184649
0.0207748230918055
0.0382710050957956
0.0355821719441748
0.0340170522898064
0.0190932441562999
0.019749057244159
0.0360555789991903
0.0386429116018402
0.0429780033032763
0.0215327509809106
0.0204047394151902
0.0192999548422648
0.0188093105252933
0.0188424172503279
0.0193066778453405
0.0204941891441393
0.0214570657999416
0.0457080938455353
0.0410158130047833
0.0432161274161509
0.0205624447239666
0.0207384729552993
0.03979057206983
0.0397092717722257
0.0207775820477027
0.02070643429005
0.0366044111151592
0.0204437367839923
0.0180785908440955
0.0204609359429019
0.0402974444670571
0.0351262121082676
0.0201530292499334
0.0195662928326719
0.0326937738751576
0.029551665808585
0.017538795765906
0.0166019433377746
0.0272912523886647
0.0280696148561383
0.0165656759416444
0.0164833561601776
0.0260420625098504
0.0242802277144299
0.0164555775928788
0.0164490933063741
0.0227562360218616
0.0234886472612153
0.0165521687360869
0.0165793480327418
0.0213924556096351
0.0205310097272451
0.0164122523534982
0.016019129903217
0.0197791820479053
0.0189778045626686
0.0158645364343896
0.0158740632295317
0.0196711049228884
0.0181593273363959
0.0154652427211907
0.0156208063586581
0.0185623190129885
0.0186799803862719
0.0154689899630235
0.0153448390941852
0.0175316130314936
0.017324372082763
0.0151401331401613
0.0150692339965446
0.0165555939025581
0.0165525972870132
0.0150712011893898
0.0150132044586697
0.015899832468599
0.015341155181059
0.015003362055881
0.0150038536226382
0.0150084404604824
0.0150071921154309
0.0150026253658028
0.0150023914810215
0.0150075737355901
0.0150079328696682
0.0150022015654253
0.0150016449424676
0.0150125928401477
0.0150063566030932
0.0150049006481718
0.0150002338123025
0.0150000485619956
0.015005753403908
0.0150043045731596
0.0150224490367229
0.0150379812036398
0.0150785620442238
0.0150527936112246
0.0150159135816149
0.0150225870177415
0.0150768220851418
0.015047916570148
0.0151019892349593
0.0151407825840814
0.0151668335968028
0.0151326298807549
0.0151733662631651
0.0152058934396975
0.0151434467887297
0.0151311394893838
0.0151670342419924
0.015178957027842
0.0151696106635754
0.0151612928053406
0.0151952865092327
0.0152038004429393
0.0151928679125392
0.0151828252718006
0.0152173644800371
0.0152278647005747
0.0152620454448804
0.0152513128226897
0.0152699048929874
0.0152816523919967
0.0153011595934653
0.015284241887109
0.0153040062288489
0.0153223204658631
0.0153232206213463
0.0153050669709071
0.015388999280346
0.0154292696213124
0.0154399826172098
0.0153994290061894
0.0154226274304122
0.0154636774253133
0.0157588420079317
0.0156595433985718
0.0157794006272917
0.0158409497244107
0.0165278011103763
0.0163873440618309
0.0166141103327757
0.0167015228608369
0.0172080043793726
0.0171251122754718
0.0186153524358023
0.018348531717973
0.0171507841678887
0.0168497746096077
0.0163376802290901
0.0158354925902082
0.0157252221234637
0.0157288970644159
0.0156751406397221
0.0156649865803024
0.0156307789510114
0.0157445574881197
0.0157300551343639
0.0162966299088466
0.0168612984139622
0.0268484196916695
0.0238096168401134
0.0164495082492117
0.0158101371516622
0.0218201124392965
0.0201161721254473
0.0156094064590827
0.0153208204216555
0.0193235570751589
0.0182406886368981
0.0152208746542466
0.0152247459961788
0.0182248135585974
0.0173169823654661
0.0151433553721358
0.0153587623138711
0.0175243941749254
0.0166620278551874
0.0151468267832844
0.0150111855723886
0.0150055276448623
0.0153728570524546
0.0159609656499144
0.0159108093090007
0.0150130718609932
0.0150018344287823
0.0153425002862905
0.0152870848389736
0.0158055495540941
0.0150152819564031
0.0150023370915885
0.0150034120272991
0.0150085715045162
0.0150069487071024
0.0150030442622826
0.0150043801415131
0.0150095584914889
0.0150127997036293
0.0150588612236901
0.0150553087570465
0.015164166215315
0.0165770371505782
0.0164011350680736
0.015099542538187
0.0151581799544214
0.0163851305321562
0.0158073939548067
0.0152852767117948
0.0150065727418405
0.0150281562904297
0.0150147051524824
0.0150046515548067
0.0150097063784877
0.0150328996218216
0.015044110212013
0.0150091198878299
0.0150270164266782
0.0153128722040526
0.0157399406067091
0.0150625479409017
0.0152805962181989
0.0163156917541934
0.0162936744699358
0.0162772438215943
0.0151432668075511
0.0152525659497834
0.0150607315704901
0.01504407724039
0.0150190804866385
0.0150270029050621
0.0152725217238063
0.015290466863631
0.0155948250596178
0.0156530513900424
0.0155925573750658
0.0154124756345944
0.0168737324350843
0.0169833457864342
0.017159486663237
0.0155444653366237
0.0159815235193148
0.0185688502777982
0.0182579510445523
0.0179215607688872
0.015700206792862
0.0158416580474653
0.0156362611417312
0.0154203824260783
0.0151317929801
0.0152000380572819
0.0152267599575656
0.0151505144697203
0.0153082486771529
0.0154450470029524
0.0156581125583631
0.0154366746675947
0.0156965935255049
0.015919752855426
0.0189690297041868
0.0186178836913655
0.0195676781340606
0.0157364251805084
0.0159895050412191
0.019925143405699
0.0205803860740106
0.016390796598046
0.0164708018434322
0.0209940436382058
0.0208357632864057
0.0205973821999648
0.0158018115212314
0.0161211752794051
0.0155670761633646
0.0154197020445014
0.0152215166957592
0.0152769202156367
0.0153264075464879
0.0152744942356745
0.0152149049536901
0.0152479513286233
0.0152903200073901
0.0152558667218988
0.0152024135539834
0.0152146776367468
0.0152509232512914
0.0152384783906622
0.0152298224346063
0.01523885102784
0.0152735605195076
0.0152639327208409
0.01528279980596
0.0152936550241207
0.0152815742649483
0.0152697840402183
0.0152896192104797
0.0153034114495986
0.0153032189972085
0.0152895218641899
0.0153096827883826
0.0153263874116465
0.0153447788031383
0.0153240876804314
0.0153250342430749
0.0153456105796021
0.0154504633412591
0.0154106354691503
0.0154226002952014
0.0154579538254932
0.0154719130343961
0.0154382785369493
0.015450305839334
0.0154846893664817
0.0154854383391901
0.0154512451073238
0.0156794417210308
0.0157633412378339
0.0157879550160399
0.0157036098313975
0.0158098939008516
0.0158661250918253
0.0158712608874836
0.015832078862065
0.0159147397853793
0.0158752311876983
0.0158489069352058
0.0157930809369139
0.015789371648821
0.0158477961915495
0.0157671979675249
0.0156771163967347
0.0156666235925046
0.0157556936973736
0.0154711982061461
0.0154347387289225
0.0154345913127713
0.0154709391468875
0.0154853538833084
0.0155214187573443
0.015537896114699
0.0155469154922186
0.0155467822444468
0.0155612781276979
0.0155615468117492
0.0155633069390471
0.015562837435694
0.015571367253354
0.0155696710981219
0.0155866171441445
0.0156094945101449
0.0156124416687913
0.015672348804031
0.0158121613725525
0.0159003898179526
0.0154445174998995
0.0154711343270285
0.0161888215432651
0.0237855540810979
0.0220998028615936
0.0159356708987021
0.0155753724897193
0.0205822586720796
0.0205527636499448
0.0157762677992925
0.0153603283446654
0.019293118968268
0.0200037763862586
0.015678960873647
0.015475791623325
0.018640675925518
0.0185122001436978
0.0155233466189586
0.0153749237035363
0.0180440183681839
0.0180753905891927
0.0155748977130206
0.0153234384427063
0.0171242228074774
0.0172039030318803
0.0154687957728706
0.0157221817022192
0.0182098066405526
0.0199874065919355
0.0163433774475581
0.0161649490222964
0.0192465760288205
0.0195369528451474
0.0165618308501443
0.0165846241441876
0.0201894482537496
0.0214808587205175
0.016878428200594
0.0167045897875804
0.0220790632710685
0.0220452885037275
0.021998256927724
0.0158652968508441
0.0162154758082632
0.0156387475514391
0.0154914280385338
0.015588846369946
0.0157363919626835
0.0153878719618848
0.0153338949595957
0.0154087711115825
0.0154713232395257
0.0153349827937274
0.0152994957827463
0.0153446210123749
0.0153776152657937
0.0152860652171135
0.0152738815631193
0.0152931936921439
0.0153062938782808
0.0152936439834987
0.0152827910524133
0.0153032233260713
0.0153163341938431
0.0153161403758955
0.015303054998261
0.0153241227691246
0.0153406236475165
0.0153270164216328
0.0153101004303922
0.0153209667330247
0.0153353188842105
0.0153480957091937
0.0153349081634384
0.0153342826068959
0.0153472135585632
0.0153470908013625
0.0153341451302633
0.0153481543175412
0.0153646117761767
0.0153650736463927
0.0153484134139671
0.0153492535316985
0.0153657352882884
0.0153656032872029
0.0153490931466015
0.0154322975922738
0.0154652956535815
0.0154767675506557
0.0154458819508449
0.0154554088393459
0.0154873225807252
0.0155001137949998
0.015467476856654
0.0154689684887988
0.0155013878700028
0.0157729962517199
0.0156946754904473
0.0157303609632206
0.0158110680416568
0.0158899351713746
0.0158344962277513
0.015902283088664
0.0159258499298094
0.016261050855729
0.0162718995660985
0.0163072384533502
0.0162974197868778
0.0167774275779935
0.0166990530882186
0.0172287590118397
0.0173047343417907
0.0189882071714998
0.018585473654634
0.0208868435104133
0.0447246805618483
0.0408427928419721
0.0203488428415664
0.0204690863885349
0.0429163700243817
0.0451528037174049
0.0204482298812672
0.0207291125369041
0.0430810805300584
0.0435958739088781
0.0208234803076048
0.0208982148315547
0.0487471525809336
0.0441152478052676
0.0215238082015339
0.0223727717035448
0.0434202373098654
0.0379521287367505
0.0216993544332314
0.0214899843786516
0.037519521167767
0.0350332707231456
0.0208149098364028
0.0203653550325493
0.0342714664397554
0.0366689384368657
0.0193342576405857
0.0180912751119227
0.0328619917766289
0.0303198439341092
0.0170727194453049
0.0168908563604536
0.0330942527024439
0.0301156582003771
0.0166724330948229
0.0166057808345761
0.027473869579477
0.0252846411492069
0.0165659272971117
0.0165719990387633
0.0242613288844066
0.0228045283591865
0.0165566864587469
0.0161625084898265
0.0216935763755169
0.0205092340425575
0.0161125200313773
0.0160585410914196
0.0204442755963304
0.0159891194625059
0.0161025500947498
0.0161622709615596
0.0218313411282964
0.0227400422841056
0.0161452486613557
0.0160510506621292
0.020282259462569
0.0153282739052016
0.0151293435099937
0.0151341740881703
0.0152866011202313
0.0159372721383056
0.019889231586706
0.0191135131563582
0.0156807400381734
0.0160321509411588
0.0194297895326421
0.0204126843349355
0.0164209268334112
0.0167965051174601
0.0211232812222568
0.0211287545267593
0.0166111674379161
0.0166570571252064
0.0217147158112304
0.022465853963765
0.0170417087756044
0.0170280837043424
0.0231016055784506
0.0234129440033791
0.0169002288666205
0.0162607533426682
0.0159072210108523
0.0227987097953468
0.0232477652510604
0.0243608754521909
0.023908803258933
0.0165017144303143
0.0169710250557788
0.0159409107005435
0.0157489540589267
0.0161475845730551
0.01642207893182
0.0155841249220531
0.0155159262375694
0.0155450083340367
0.015609991476025
0.0153992572404084
0.015366482978598
0.0153648921562129
0.0153967299642723
0.0153063026303633
0.0152931243726206
0.0153140690367539
0.015329286541999
0.0153289763553693
0.0153139435532261
0.0153356537715381
0.0153539515848602
0.0153411689332715
0.0153245574661122
0.0153361038895465
0.0153500871668089
0.0153636123158276
0.0153509199553132
0.0153500620511717
0.0153627200963742
0.0153628197777951
0.0153501910549365
0.0153352568413403
0.0153483786004826
0.0153630698123998
0.0153505028428474
0.0153498204996567
0.0153624894398204
0.0153613545313773
0.0153490052316052
0.0153488538217225
0.0153612091856459
0.0153782712887163
0.015362703055927
0.0153631840125076
0.0153790747302979
0.0153795323170935
0.0153638393527925
0.0153636976241977
0.0153793906060753
0.0153934015157285
0.015377526848147
0.0154578858042174
0.0154882826229377
0.0155027150330144
0.0154707772415273
0.0154829865747053
0.0155157609704124
0.0155174926750033
0.0154849983421808
0.0157071923218392
0.015783784586074
0.0158342829100939
0.0157532840896683
0.0158589155140366
0.0159153739298569
0.0159572388168382
0.015936615405502
0.0159730135759436
0.0159866818362076
0.016474592380786
0.0164735210614109
0.0164953753364869
0.016491408471346
0.0168552470024828
0.0167867750230296
0.0173249546042737
0.0173928020149137
0.0188426888781116
0.0185864595535819
0.0207409181114931
0.0475411847598207
0.0429343698664909
0.0203451234494797
0.020405358219835
0.0462779042067509
0.0517807888793422
0.0207712876323129
0.0186479534451042
0.0188680344508508
0.0189481850485929
0.018740293203315
0.0208630817437841
0.056928163202973
0.0502122298639678
0.0205125736541382
0.0207069920593309
0.0542307813803248
0.0492886062897245
0.0204765835782999
0.0209162450768917
0.0479473163860699
0.0538280546530556
0.0213895954893211
0.0211449953922329
0.055002791296948
0.0503919196614137
0.0238971999247713
0.0251828578389794
0.0485972141024963
0.041561332797702
0.0235563242781697
0.0233856510490898
0.0412439982311728
0.0384674133075687
0.0221593357485643
0.0204568671954932
0.0370626987681654
0.0432252539961797
0.0211296906878091
0.0197041504826857
0.0404564935800628
0.0449683625012354
0.0189545634038098
0.0183224281863305
0.0404518314476575
0.0364619454528273
0.0173733679113908
0.0169596178542194
0.0339372527688813
0.0310310994204949
0.0167951273077391
0.0166955213424566
0.0284672703774852
0.0261632972512392
0.0166150772466692
0.0162390809960856
0.0244416627439946
0.0229171986360756
0.0161917551003207
0.0162056208086486
0.0230210998604101
0.0242608831289334
0.0164367700543695
0.0172899276483689
0.0257038041480174
0.0273735474081626
0.0175701697961724
0.017405618867626
0.0281555502540084
0.0301944389529918
0.0178898747169831
0.0173548083429718
0.0298212714235409
0.0259252569544262
0.0166486777783591
0.017056753005611
0.0256939803241777
0.0238434178114513
0.0162326486961644
0.0159966613596577
0.0221047962660206
0.0241998018940406
0.0165849626292125
0.0162751075562341
0.0216278997838553
0.0221134552511159
0.0168607365055478
0.0161224886106744
0.0207024088135946
0.0200649012765124
0.0161555098280373
0.0163401070040152
0.0209188313764112
0.0218098233716876
0.0167728388440587
0.0168874775109128
0.0228810875494604
0.0227292582640706
0.0167355875204705
0.0169332505344195
0.0233674917607913
0.0244065891389012
0.0173150761114029
0.017552429367778
0.0248783111345231
0.0247787013942589
0.0174294181879683
0.0179608184842257
0.0263577366831962
0.0256521415989991
0.0252077408485811
0.0171484740902762
0.0176986083966571
0.0183639679807993
0.0179112861767084
0.0268409599778724
0.0271577974962497
0.0279753749770863
0.0184745152535148
0.0187923538274622
0.0300482929450118
0.0292392762946942
0.0293367395688066
0.0189585316146598
0.0191191807271085
0.0185225350193469
0.0180688419961362
0.0178093699650535
0.0183820508349651
0.016506039046306
0.0162466346017988
0.0162308678771617
0.0164953934034085
0.0156223515917323
0.0155514385416874
0.0155859987659566
0.0156549349712044
0.0156311575214712
0.0155710095172193
0.0153899841538205
0.0154232698289808
0.0154165721988149
0.0153855392722089
0.015406200533557
0.0154373904302443
0.0153547673195924
0.0153361691775306
0.0153483597713457
0.0153640376555987
0.0153782605585007
0.0153640530558115
0.0153629207714249
0.0153771200750341
0.0153764828888456
0.0153624428204653
0.0153511104244033
0.0153638581809571
0.0153797600462796
0.015367500802527
0.0153668668236863
0.0153790652627082
0.0153778652965769
0.0153657468187311
0.0153659636176756
0.0153780655416872
0.0153937624747406
0.0153813162068216
0.0153652928816882
0.0153781811799878
0.0153771897025828
0.0153641843255382
0.0153631683284444
0.0153757976206084
0.0153755983301995
0.0153629921354708
0.0153765257252154
0.0153921737098079
0.0153933201392666
0.0153772020756715
0.0153776674016843
0.0153936012130996
0.0154078308875059
0.0153913083646434
0.0153911518498244
0.0154075400693112
0.0154997785386829
0.0154694281895792
0.0154855042980723
0.0155179609141529
0.0155314657587511
0.0154980225103794
0.0155005264957968
0.0155336593927631
0.0157952438310357
0.0157191208621653
0.0157750334424456
0.015857304645026
0.0159412830899794
0.0158832364088144
0.0159075585974299
0.0159672222751586
0.0160156314592432
0.0160021869289918
0.0160316211198578
0.0160448365955932
0.0165986553185981
0.0166111625620443
0.0166249496651593
0.0166023344240776
0.0169379424817901
0.016880359398224
0.0174402543878871
0.0175037558220397
0.0176357127664346
0.017571636116466
0.0177150707081834
0.0177795842022036
0.0190510078242628
0.0188558534744618
0.020989745002277
0.0631252620130621
0.0549547143600334
0.0206548455866134
0.0209863735256761
0.0600205677625135
0.0609158109150791
0.0219112583989517
0.0212916811652508
0.0612290673980889
0.0577630571832237
0.0242763271630382
0.0265324502344368
0.0614046026198888
0.0555730479964178
0.026904752720615
0.0271640171680675
0.0524154851418705
0.0452048153105164
0.0250413308287503
0.0247341733631781
0.044520455613469
0.0483917586007669
0.0246774748751726
0.0233691929518377
0.0480246539790944
0.0519898622427938
0.0235224533893148
0.0215828026566308
0.0495286421140284
0.0445264486078375
0.020229984349314
0.0197464197924692
0.0499122131153928
0.0448167410293766
0.0180732228539621
0.0175969978904354
0.0408544782280267
0.0372230145553822
0.0172345071682664
0.0170279239281958
0.0347291317814902
0.0317230281030554
0.0167976012243344
0.0166285436443716
0.0290531068274935
0.0266090588931869
0.0165277681861958
0.0170822965733727
0.0259857138636868
0.0268288314880945
0.017597299039579
0.0176868467958935
0.0284762439003679
0.0307523161996618
0.0177834552360062
0.0179640838551157
0.0334206360496419
0.0363925166734777
0.0181432050881146
0.0178504057473866
0.0312347505439816
0.033899807483232
0.0184576890647633
0.0179120505823626
0.0331157268678781
0.0285336918097482
0.0170637977803875
0.0178760254431449
0.028860186106334
0.0313494297322133
0.0190634482801326
0.0185569756125231
0.0298937562751969
0.0268501375608881
0.0170027471235448
0.0174123632239549
0.0261316855458111
0.0285882766960027
0.0175201455951448
0.0173403969485095
0.0264789128305492
0.0247280581875426
0.017241989944503
0.0171674393308686
0.023108183708185
0.0219106570827751
0.0164739373132693
0.0164038797588406
0.0215952945747476
0.0227000130398536
0.0170323891717862
0.0171198493485135
0.02496792190084
0.0245741992923473
0.0170068615180402
0.0169999735200139
0.0244671723849274
0.0252842753078146
0.0174851243159834
0.0184823958625678
0.0273946913745611
0.0270124227866427
0.0185065119454246
0.0184121263674129
0.0276280154904532
0.028152354932521
0.0188875052087315
0.0191574563157065
0.0306956584014377
0.0332296792349972
0.0192723936767808
0.019090771298926
0.0323753943460756
0.0314822286316061
0.0321678945320378
0.0190747897678144
0.0196332459347949
0.0183090665533743
0.0179637800015748
0.0163307408373407
0.0165831463518638
0.0165300502924956
0.0162901018019173
0.0163323563607882
0.0165379266933176
0.0156877959057869
0.0156200540223493
0.0155936058179479
0.015648244388337
0.0154492239781812
0.0154142838876526
0.0154271484811007
0.0154575665085203
0.0154723260236859
0.0154438826779456
0.0154354157224724
0.0154611871400766
0.0154492021512327
0.0154244790280266
0.0153639243935209
0.0153783216318314
0.0153954885569193
0.015381697065899
0.0153813754513527
0.0153948789756079
0.0153936712339956
0.0153800505742751
0.0153789997860062
0.0153924107162645
0.0154093819805251
0.0153956431492299
0.015383827564924
0.0153964776974002
0.0153951838706208
0.0153826357569964
0.015381093222756
0.0153935205249437
0.015409705568658
0.0153965731708789
0.0153965599096858
0.0154098607988076
0.0153936012269853
0.0153799565188825
0.0153783471920168
0.0153921088840291
0.0153904292715845
0.0153771458363963
0.0153769454424114
0.0153901552882363
0.0154062226961581
0.0153901591349849
0.0153910114274311
0.0154077089515935
0.0154224074392724
0.0154051579559157
0.0154052855110536
0.0154223829880011
0.0154219906434562
0.0154051083282169
0.0154812057042166
0.0155115384937268
0.01553340286477
0.0155004279274727
0.0155134213676172
0.0155475583266878
0.0155502474556256
0.0155164498918466
0.0157314441327851
0.0158072392924581
0.0158803060999116
0.0157969229731034
0.0158187762693993
0.015903138680995
0.0159932237558612
0.0159317870554482
0.0159559647229659
0.0160192772240052
0.0160738113652216
0.016060249074832
0.0160895489908172
0.016103286912445
0.0166899218379434
0.0167232074735562
0.0167332517476419
0.0166890654972734
0.0170262158351942
0.0169793684281409
0.0170772570728479
0.0171190237830961
0.0172137486466036
0.0171815706218413
0.0178666397479749
0.0179284237025968
0.0191685984028203
0.0189877477171654
0.0211390626162563
0.0701897869814559
0.0603521074777826
0.0208242828882542
0.021206886620787
0.0668683712920988
0.069455285588774
0.0223509137510105
0.0214806343817477
0.0681990795749233
0.0663342659221659
0.0240632402565798
0.0262118912613029
0.0708782019980467
0.0620748822610819
0.0267214164029893
0.0250649824233364
0.0513877385723114
0.0468468899559824
0.0249537858482177
0.0246655244423695
0.0458964797922733
0.049228614935245
0.0246544394388024
0.0247996267702267
0.0545869285967506
0.0616244870593062
0.0251999467098227
0.0234807494607001
0.0564070396756286
0.0630222456818522
0.0243827159265131
0.022787153465327
0.06081464608091
0.0499243498666556
0.0209451202650506
0.0208866694833036
0.0554272694640908
0.0491996346154065
0.0187122060537148
0.0181215639801272
0.0465768240836763
0.0420734888098659
0.0176767600666954
0.0173165988668825
0.0381640043384971
0.0397669434551038
0.0179337623284215
0.0176366835043155
0.0358949465947215
0.0324608698890703
0.0175092680874863
0.0174472429730499
0.0295922927356741
0.0173856710095954
0.0173262332011559
0.0174182245525338
0.0166924661845941
0.0156552501552748
0.0156108448088932
0.0170076856031872
0.0182629024429466
0.0309196871851969
0.0365736402899072
0.0182107983902061
0.0179605435596556
0.0337009393743668
0.030871122182766
0.0177300934167275
0.0177685528755783
0.0301746395712063
0.0278795967538469
0.01729065781466
0.0178473525369359
0.029504447935417
0.027363629706267
0.0175196514034547
0.0172694695126187
0.0255872992190734
0.0242202689167093
0.0171075588345311
0.0165800715908519
0.0233003956709707
0.0245662739934181
0.0167621380387782
0.0170011645151201
0.0260895872146256
0.0279186480604033
0.017515434833002
0.017318069593777
0.0260018000878627
0.0244034256566902
0.0171742501697363
0.0171456465520628
0.0162069821906079
0.0170364531003349
0.0246002733710179
0.0234935700374867
0.0171585559233292
0.0170494415167016
0.0172430031667821
0.0165299190283344
0.0174311271976764
0.0272059108898285
0.0288754624613997
0.0180129773132693
0.0173413120626035
0.0175985744664935
0.0180298747056928
0.0327336521868094
0.0298975321640656
0.0175949684861866
0.0182114054837442
0.0320365451359656
0.0340096475972992
0.019141182319024
0.0197438925634127
0.0310374248778527