/*--------------------------------*- C++ -*----------------------------------*\
| =========                 |                                                 |
| \\      /  F ield         | OpenFOAM: The Open Source CFD Toolbox           |
|  \\    /   O peration     | Version:  2312                                  |
|   \\  /    A nd           | Website:  www.openfoam.com                      |
|    \\/     M anipulation  |                                                 |
\*---------------------------------------------------------------------------*/
FoamFile
{
    version     2.0;
    format      ascii;
    arch        "LSB;label=32;scalar=64";
    class       volScalarField;
    location    "1700";
    object      p;
}
// * * * * * * * * * * * * * * * * * * * * * * * * * * * * * * * * * * * * * //

dimensions      [0 2 -2 0 0 0 0];

internalField   nonuniform List<scalar> 
209453
(
83645.2682795049
83660.4147034623
83682.1025705133
83659.2581651067
83644.7923220111
83633.327453593
83623.3865728565
83611.127594958
83615.9804218341
83624.048637593
83623.5042294657
83620.7977801321
83620.802954237
83631.4701334376
83630.9964794728
83639.638546983
83643.4831341695
83641.4009981817
83640.9196596203
83653.7419081431
83662.1157969329
83668.1336700369
83653.6588824711
83644.1837760694
83644.4245923914
83654.406956186
83653.9825853014
83657.378296472
83663.975308686
83662.3432772044
83657.5607942624
83660.9294180232
83662.2117634335
83661.24232342
83660.0318534527
83658.4010342133
83664.0661236779
83671.0267126198
83658.5770101375
83657.9019477018
83671.5611248644
83658.6956086356
83653.4866412393
83658.8397745326
83678.1301108317
83619.9192984572
83627.5399485674
83602.6617914221
83574.7775560969
83582.2816314969
83598.6730359675
83595.4870310346
83571.1729266381
83660.7874841602
83669.1524410321
83628.9443042447
83619.0737380656
83613.0724852111
83613.3087912804
83613.8192587798
83613.47764917
83612.4702223017
83613.8532163478
83608.4763649387
83608.3909613508
83602.4685773493
83600.8955027898
83583.1794290136
83598.5986419301
83616.0238506962
83612.0367119487
83630.7708713787
83667.7098175421
83662.3119618869
83642.1686839764
83621.2651027297
83625.1299482125
83601.4598547254
83590.1770031242
83597.3710929073
83603.8605394201
83608.2642055969
83607.2098024925
83607.9614697427
83609.9703915676
83610.7146051973
83609.253225356
83611.8034134191
83612.378411484
83614.7979359985
83614.8670519613
83611.6581027986
83612.1528026293
83614.9923961167
83615.2753320326
83624.5236317059
83623.4993404482
83633.5031031313
83633.0825050493
83644.0270987546
83645.0447325262
83655.7880061987
83654.8990942907
83666.9395052314
83667.2459438825
83663.5687282362
83663.3989379818
83675.692283146
83675.8477183281
83669.7555213689
83669.1049898708
83667.168876104
83669.5524099133
83670.1202963483
83667.6788339117
83656.4859040876
83666.178321598
83667.3889027394
83671.4286761159
83688.9869532288
83674.4677721035
83674.2945787465
83683.1071386527
83681.2950471082
83677.4182663203
83677.6670070719
83679.1475345754
83681.5785154296
83681.3293411768
83679.5213787259
83679.3440268069
83677.8071485034
83677.841091522
83675.3294990999
83673.5172474888
83671.316726567
83670.8754416743
83659.4601519412
83659.7339823689
83652.8603070448
83651.6987297493
83646.3975089992
83647.3684286489
83645.6737772054
83644.8594319863
83647.3145477027
83654.7144624469
83656.5560059062
83634.983534923
83631.416579685
83641.4844965453
83606.8889223129
83610.8670333768
83603.5102048984
83600.6979039885
83589.5304724877
83598.6615299902
83609.404688309
83617.94444011
83638.0668125826
83612.3827766359
83604.8160669392
83622.8034174162
83609.6697685673
83606.0475196866
83607.5130473553
83608.6644308728
83611.9834322691
83609.9424378029
83603.8410606361
83601.8329282265
83604.118123809
83603.5805857894
83603.696193466
83602.0647226872
83603.1998309579
83603.2268110282
83605.6594995678
83614.3816119651
83600.133283846
83598.3476319043
83608.7031204845
83602.8815098516
83600.5465342206
83601.0096606329
83601.6637588091
83603.3946432492
83603.0879179695
83605.7016786903
83605.8339447915
83608.0651308306
83608.1174389741
83608.7369038639
83608.7198340779
83609.179215913
83609.0755926441
83606.0890015269
83606.3021601245
83606.4658016767
83606.2610295158
83606.6082230392
83606.8016899581
83607.5179834468
83607.4023642158
83608.5048487364
83608.7958659954
83608.9161546447
83608.7081811555
83614.5966455573
83614.4826186061
83623.9386219344
83624.6772670028
83631.7350075322
83632.0207410767
83632.8103536804
83632.446144318
83642.466177812
83643.0673360521
83655.0401184474
83654.4023183591
83668.9513994175
83669.2001197256
83686.7788168586
83686.4381916873
83680.5579220377
83681.2556406161
83692.4219899702
83690.9791429349
83688.381405408
83689.5477813891
83684.0675550707
83684.2927646064
83682.784202439
83682.0652324715
83685.248449198
83685.1361137182
83692.4448362585
83692.6238522016
83688.2100930358
83687.2198467047
83684.2236177367
83686.8638180565
83684.812868613
83678.0313872317
83689.8992548947
83691.4900377756
83689.5370137871
83690.0975240676
83689.4061247771
83684.4207453981
83668.9957262118
83667.9915659625
83661.222098984
83661.3681746944
83653.220124001
83653.8880404771
83646.3648149482
83644.996957876
83641.0726262083
83642.4055430246
83638.503328902
83638.2379791
83636.6634581746
83637.1108448885
83635.5288966934
83632.4425113642
83625.9670864573
83627.9124753738
83618.6624186448
83619.2664992364
83607.3218459005
83598.1941982538
83602.8542681724
83605.3965979906
83603.7233435775
83602.1829221963
83603.550237107
83602.9523586165
83602.0013707655
83601.8273707177
83600.861155698
83600.2908658185
83597.1393272892
83598.9672580144
83601.1757231569
83593.1327175354
83593.0705243468
83597.057036455
83596.409254912
83595.8559846844
83598.3867415365
83598.3568670454
83600.6401925486
83600.6379667158
83603.0503125664
83602.9459159083
83604.9722154508
83605.2202595873
83602.3932480672
83602.2377594045
83603.4732660523
83603.6979324593
83603.877862682
83603.6274451841
83603.9404489102
83604.2164568776
83606.0435727808
83605.7580982532
83611.008721968
83610.8980938657
83620.4461002373
83621.3167701344
83628.0264385945
83628.2848092331
83630.7483723726
83630.4865559036
83641.1881211878
83641.7236821582
83642.6822451271
83642.1487931805
83655.1968065041
83655.8867215088
83672.4010239739
83672.1675863555
83693.3644965244
83693.4451155166
83711.5314401626
83710.6575736742
83706.0265139247
83706.9549859185
83700.96045666
83700.1375798058
83696.3012284325
83697.1760013842
83708.0038235151
83707.8894146291
83702.5739424369
83702.6870160891
83698.0858629173
83697.47478125
83693.8138558403
83694.5156884381
83703.2972418748
83702.681937733
83699.8438343167
83700.3965825452
83696.5744464012
83694.260670188
83691.9422139661
83695.4731667848
83703.4027380666
83703.873776866
83703.0541135155
83703.2993716947
83693.9212371501
83698.6676241
83702.5276663136
83703.2523169567
83714.8187994221
83708.7269236864
83706.7363914368
83707.3259580442
83710.5396643209
83709.2364930285
83713.3354668872
83712.9386578342
83705.7309970215
83708.7594887191
83706.2930153475
83699.0984658813
83701.41630712
83706.4979641261
83704.3566562131
83702.725441203
83700.077973697
83697.0646499044
83700.2679952056
83689.3298771052
83705.9311838864
83699.6663282314
83684.3651946791
83674.2771997647
83667.1581223193
83673.2353523822
83656.1433789057
83653.7004968448
83653.8822483056
83653.7246196041
83649.3767987109
83649.866873557
83637.8121805929
83637.1943245098
83635.9140853587
83637.6390745906
83636.3499969859
83634.5383102017
83632.6386472324
83631.8556820862
83635.8896487862
83630.2193429398
83630.3867498632
83634.9162879669
83627.0087204271
83626.2276609751
83620.0713892158
83604.3438612542
83610.7957367472
83613.7178583722
83609.2231140085
83598.6047060345
83602.9228423758
83605.3394598634
83602.9304310615
83604.0596960866
83599.1826084521
83598.7430018994
83601.0370940958
83601.9819354386
83598.1000897752
83598.0402421217
83597.9311464249
83597.620106192
83595.5951646935
83595.7964693491
83593.3818962942
83589.7361356285
83593.1695277702
83593.7299848233
83595.8173924782
83595.7370397216
83597.7386066561
83597.8052281985
83600.0884823665
83600.111018254
83596.8780657121
83597.3065349286
83600.2672728053
83599.9642802847
83601.2865584254
83601.4245500227
83601.7456738981
83601.6854018475
83602.326649588
83601.8640665785
83600.7323667161
83601.9132459343
83596.4603280955
83596.8851548764
83600.2058277876
83599.7816749864
83599.975967724
83600.6520226156
83604.3663853986
83604.4718226872
83614.6925368317
83614.2064859426
83620.0275153545
83619.6280652272
83624.8042642578
83625.0472713148
83635.059692032
83634.3549534066
83638.3723980737
83638.9636617093
83653.1476328538
83652.4517966341
83655.002504286
83655.7037230184
83673.8565817246
83673.6688513814
83698.1107020067
83697.9571989988
83722.2646429168
83721.6945320167
83717.1568970323
83718.0390354958
83735.499120029
83735.4868759159
83728.1324040603
83728.1428257526
83720.7665073662
83720.677573533
83714.0729179126
83714.1355162447
83727.2999421069
83727.6846831001
83719.9120259544
83719.4948662213
83714.1235858714
83714.2955941794
83708.014148547
83708.1471518748
83718.5080368297
83718.5284998104
83712.317319109
83712.4845377352
83708.1957602838
83708.2048292472
83709.1765207863
83705.5053451631
83696.9715950689
83711.2040438286
83703.4801545393
83688.9461409151
83676.6355820792
83660.8564206543
83636.4627516642
83607.1605625206
83580.4421814188
83551.1948235566
83533.9232802559
83535.6151718553
83566.0412810519
83567.1985983083
83583.7809031466
83581.0178562627
83593.3499362144
83593.7144862965
83588.0530912351
83586.323887571
83593.7287607897
83594.5197931087
83591.0359869557
83590.2599588132
83596.0504663096
83595.528019545
83593.7371871832
83594.6026093649
83594.6097128773
83594.1697400565
83590.3048697915
83591.1740434349
83590.1817059226
83584.8093431891
83586.9543181866
83590.6022695091
83591.6204437606
83592.6480248749
83594.3431641416
83585.1304617379
83591.1235278714
83592.4013098002
83595.0748043631
83594.8555693915
83593.477153395
83593.6716381685
83593.7286288348
83593.4966264385
83594.4484212008
83594.1120191982
83593.5282100251
83592.6608182794
83591.3983452732
83588.525336193
83591.7891383948
83590.5817495884
83588.9969032496
83587.5008046712
83599.9478823148
83594.6236586867
83592.0479327504
83595.4636032155
83596.6023757501
83598.7346629647
83596.6744135585
83600.678323452
83601.3375106195
83612.2691473744
83643.9198568197
83641.2171227886
83604.4794791432
83581.6246294625
83555.5029554398
83567.9483023658
83585.2952860035
83589.3120127052
83584.4785074732
83601.8415518853
83598.0727716503
83606.1421677042
83609.8580553863
83640.0984836911
83620.9258753468
83611.6273390955
83645.660441886
83588.3683725695
83591.3581665591
83583.6989775122
83577.6664983032
83569.0200603846
83584.3902417503
83583.3316246053
83558.7797207573
83572.1170221679
83584.8699121531
83592.6051297882
83588.9375257583
83593.8022295342
83595.4909945668
83596.7154734192
83594.3209710117
83598.13340419
83599.1303271774
83598.4163178108
83598.1377276373
83594.8891427838
83596.0509677005
83594.262652922
83593.3984061968
83570.4953896005
83584.8850614586
83592.3860445405
83602.0441342479
83601.068117179
83586.8438063918
83593.8788794237
83605.8749124676
83613.8680625382
83626.5525499413
83613.5987143345
83612.6103902373
83613.5567396593
83611.9055770116
83607.8650588769
83608.8662433185
83615.3696826284
83614.7327452429
83622.1892692723
83623.5842628249
83628.4371022488
83627.370289949
83638.1141854991
83639.1393460936
83648.3986364582
83647.7781985198
83665.5727715246
83665.9160545709
83671.8285164695
83671.5135965742
83697.6304395389
83697.4945511902
83727.2257522113
83726.955051127
83724.8844084753
83725.3394349783
83747.8894863612
83748.3576095308
83743.040466421
83742.7745315816
83763.3394156005
83764.176976729
83754.3423470779
83753.5097074895
83744.7096549001
83745.3099353965
83735.6972556667
83735.1536650602
83743.879877827
83744.9652674344
83750.2971990815
83750.4478167715
83745.2179530291
83745.1010497158
83739.889825588
83740.0636788648
83735.3297051684
83735.1538295088
83731.6595371711
83731.7798618278
83728.4806725708
83728.381826325
83725.5559525029
83725.6735678625
83721.439981211
83721.6162257347
83721.5206772544
83720.9308613101
83724.9223149674
83725.6175058295
83727.5420694913
83726.5618002764
83730.2713584116
83731.2872392183
83734.7246734018
83733.6124341004
83740.5369319063
83741.3979540562
83745.7845704814
83743.8834065222
83759.3351410923
83759.1178369329
83756.0741673503
83754.5359728838
83753.1318768761
83750.2879838762
83742.9044182479
83738.486980781
83731.9435620655
83717.1904061064
83695.7999397876
83668.767481347
83631.79990416
83589.6447709903
83559.7357469364
83542.9064505015
83526.466420823
83511.0710302725
83507.9162153866
83549.9500022519
83553.1679145808
83575.6799008356
83573.0083397273
83566.1412554312
83567.8982186908
83582.8655195515
83581.2185901976
83578.4477949712
83579.133680349
83588.4483909349
83588.5020677675
83587.0805515304
83587.4338688816
83587.6858384223
83585.9962056744
83584.4155552059
83588.2938215493
83590.6545337861
83588.1470393333
83585.6044382926
83588.0337789522
83590.1557394058
83590.8497916097
83584.4105614931
83591.8428387773
83602.4504554684
83631.8343417007
83582.9653273579
83595.5034529856
83598.7226522742
83573.5160197743
83649.773087517
83626.1766588878
83624.8437445284
83645.413073501
83632.8003575794
83627.5839242589
83620.8323797774
83620.3448887571
83615.84211996
83616.9287677357
83621.1461283348
83620.0801226155
83630.6249792806
83631.5614111476
83638.8803396777
83638.1505900958
83651.8801028849
83652.5674420777
83670.8042179711
83670.9702303514
83690.2093146759
83689.9578586816
83723.9623374917
83724.4485784491
83726.5588495032
83726.5092489868
83752.582807935
83753.7620126208
83753.0604806488
83752.2021537049
83777.2733545885
83778.6656787132
83771.8871036274
83770.7532092017
83786.1933007823
83787.4304892108
83795.5855179282
83795.820082463
83790.0898038275
83789.889805809
83783.4948377446
83783.777945665
83777.3828648542
83777.0713037466
83772.9306778079
83773.1340676939
83767.0031989125
83766.8612138119
83760.526943873
83760.7563994135
83754.790234643
83754.5878893988
83763.5504683669
83763.7708387538
83758.8553123017
83758.6844637259
83752.5689863345
83752.7806907378
83747.9571047608
83747.7510172862
83742.2210549873
83742.5313230019
83738.4745821872
83738.2269759902
83733.7009084827
83733.9984104583
83730.3932810361
83730.2941253806
83727.727171347
83727.5311554108
83730.9933354635
83731.180494153
83727.1079861612
83727.0148183716
83720.6696219098
83720.8215335816
83717.983304849
83718.6712892144
83716.9936701567
83715.9860352137
83715.4117184601
83715.8120403662
83714.1496799536
83717.0310341236
83722.6016712388
83720.5575600714
83714.4965073864
83714.3879284826
83697.7452531836
83705.0469770563
83717.3220650406
83717.7522474369
83714.249761166
83712.5814864981
83701.0703825519
83704.1518014252
83696.0955209195
83692.3543019684
83678.8153838774
83684.8104474748
83669.6858634987
83666.7222667751
83650.4695212468
83648.7563864751
83633.3680971367
83632.1873021672
83636.5054208786
83635.2227159724
83637.965691971
83638.0735849263
83620.644628866
83620.6144780339
83623.085741278
83623.1889972753
83623.4295312781
83623.4689926697
83625.097983283
83624.7830119912
83619.3017086415
83621.5820760589
83633.584483638
83626.7924062803
83621.4893836869
83631.4120027551
83615.731000162
83612.8505142698
83621.8697374007
83623.3919731391
83618.748348552
83612.7269129133
83608.2216946958
83619.3513313667
83588.7654299968
83593.8343848109
83602.5230153263
83605.7422358034
83600.2402021615
83594.5045058179
83588.6484192563
83583.557635053
83578.0266490489
83578.4224731435
83577.6840727694
83581.3583507171
83583.6085382249
83574.566038691
83586.2224249452
83584.2681085746
83589.3499390604
83594.8511006487
83593.841859486
83594.0281514338
83599.0088389172
83595.7911481048
83611.3175108633
83608.6552074939
83615.2424339123
83629.0358720316
83630.6123495846
83616.3100454977
83616.3805573615
83617.4123708285
83620.9710929408
83622.2796522526
83610.4784111172
83611.5282696476
83611.4008095055
83608.6886814179
83620.8074513099
83622.3849500112
83621.6471738873
83620.4507602957
83647.3939310329
83647.4012057152
83665.8638657153
83666.3711905678
83682.929920437
83681.9805310111
83701.7099211315
83702.5185985804
83714.1395339799
83713.347472433
83737.5371966966
83739.4972727809
83750.2481998004
83748.7758974746
83774.314602091
83776.1303050601
83780.474192231
83778.7568157818
83799.726023017
83801.1888717901
83809.9355408678
83810.0788447523
83807.8458103628
83807.6158303589
83803.2311089407
83803.5501624516
83798.7561651496
83798.3708765734
83810.5553949813
83810.5177131918
83806.8334323
83806.9194867315
83800.2739078721
83800.250177798
83794.8007900197
83794.7433790746
83787.7290131513
83787.8923732926
83782.9145017206
83782.8168927168
83775.8187709722
83775.9395233986
83770.3754033709
83770.1883979921
83778.4100613457
83778.5301333886
83771.8105639374
83771.540242691
83766.2325116166
83766.4265965778
83760.18837562
83759.8630745435
83754.6336165847
83754.8438689897
83749.1634042577
83748.8225126344
83744.1745251794
83744.4920991136
83739.7165053701
83739.3392913975
83735.1942243385
83735.1909628147
83740.0917817209
83740.0525266966
83736.822187719
83736.6784755585
83740.6910838601
83740.789658394
83736.9284957615
83737.0005882812
83731.1543627662
83730.6498505006
83726.1640198875
83727.4726768631
83726.3820733089
83725.5612630046
83725.4985335686
83725.1045213192
83731.6242070771
83730.4992785579
83731.7396019254
83733.2323729516
83735.7719724941
83734.6424130428
83741.978582784
83742.9782863397
83739.4217758096
83737.3675721477
83735.8701531022
83737.7944374297
83733.0440450628
83732.6761554265
83726.7949195946
83726.5076539154
83721.8472298827
83722.0353437094
83730.2822103508
83728.821108232
83726.2179061662
83730.9977030448
83724.3091830431
83720.0184239639
83709.5448445782
83712.9610967195
83699.7985741563
83695.6046013824
83682.385444936
83688.9967674132
83674.0560323871
83667.9227222553
83655.1587147078
83664.9911252677
83649.3693209374
83650.7052758721
83616.5941464119
83617.3692222852
83586.2522336626
83585.1285043983
83604.378636353
83605.2225517722
83614.7528432099
83614.8968660463
83600.293385238
83600.0760134782
83606.1144965832
83607.9044688888
83612.7596030043
83612.2526471546
83614.1011765394
83614.6828192818
83604.1809395842
83599.8091597273
83617.3196990388
83613.3758983442
83605.9176268137
83616.304158351
83579.3113504407
83593.5258118301
83579.2455973291
83573.2964239325
83559.9660195393
83556.8890030765
83537.6757699664
83544.0576326251
83494.9523192608
83498.2497015994
83463.7352723896
83462.1042033507
83437.6746150723
83437.1200464882
83405.6227897467
83411.7806768493
83486.9298961648
83487.7514596172
83540.0264221353
83537.3337898745
83533.8601276414
83532.4246126009
83562.3931834205
83561.9463224335
83553.3605459969
83558.6948554464
83569.9926755647
83558.0284137024
83578.5846499801
83579.3288740125
83570.897541495
83552.2820932707
83570.165908102
83570.4053132737
83573.5376751173
83577.5057373739
83587.9444541727
83582.707123595
83589.6800663206
83594.9794141038
83597.2745403624
83594.6189088514
83600.5143223285
83608.4678123073
83612.5484721666
83603.8836722944
83594.7592624626
83592.1517170224
83599.3042783996
83602.6485757544
83605.8171545145
83602.9935125628
83594.1650222402
83596.6183484596
83592.0550349798
83587.6668895317
83581.3277566179
83586.5263618256
83578.4018347683
83576.1531769692
83582.5073469912
83584.1252360323
83586.1056422589
83584.6724298199
83588.9894418606
83589.7771061174
83599.7940699893
83598.3969664922
83604.3252416071
83605.3484759984
83626.7030210786
83626.5660963575
83644.2571833071
83644.1142275239
83645.4413760043
83646.1228143337
83672.2771669246
83671.4175100804
83697.4667268982
83699.4863283132
83721.7713377085
83719.7343124552
83738.761538064
83740.7102791719
83763.8928989836
83762.0711264691
83783.8319979456
83785.0183816853
83790.1397726474
83790.0615513051
83799.9712390494
83799.9335105995
83804.6683558496
83804.8967818804
83807.4914403946
83807.2313652791
83819.3046158596
83818.8028146424
83820.8922799912
83821.3263783721
83818.8104015735
83818.5641346836
83815.7498851706
83815.9671223801
83825.3798961753
83824.7831904517
83819.6211133425
83819.9679237152
83816.000645026
83815.7213732368
83809.3261224362
83809.4787699965
83803.7521673671
83803.6939572941
83796.718760966
83796.6615776597
83791.3341177425
83791.4162204799
83784.5015821788
83784.326901483
83791.9104824607
83791.9034745798
83785.7313723321
83785.7459578711
83779.0405412968
83779.101044873
83773.3322340059
83773.3186747123
83766.9629377009
83767.0888966865
83761.2295807258
83761.1780037658
83755.2262030957
83755.375478061
83750.0516736721
83749.8729986491
83744.533513521
83744.9166139159
83750.3620594511
83750.0854494002
83745.2427409796
83745.1823864056
83750.4857481788
83750.4645130979
83746.9660036919
83746.7884471562
83750.9293494427
83751.0291272673
83747.0663886475
83747.1139604182
83740.9801090629
83740.4606750608
83748.5711304957
83749.1211243078
83755.9616101485
83755.4964998149
83748.29438802
83749.2420407657
83745.0484326724
83742.7610069996
83741.1820805973
83743.427629296
83738.4638617656
83737.4838989811
83732.9621165045
83732.7716266834
83727.3075759017
83727.9968630018
83717.3622534183
83717.5645188926
83711.8074888926
83716.3432959418
83711.8536098345
83704.8500090311
83706.6684214858
83705.8171345603
83694.6527683976
83693.6504604332
83679.5330530232
83688.6289200625
83666.6699508676
83667.5800936663
83668.2311744314
83667.1512126435
83650.1021843555
83660.1899752738
83636.0177270923
83632.8839341405
83593.9923910674
83594.9260614606
83556.2987829991
83558.0438994462
83532.6158712765
83529.9797851696
83561.6953840447
83562.8456212952
83585.3330586623
83585.0019872738
83561.1765139153
83561.95358256
83583.4063442039
83581.811624522
83591.8847492962
83586.5252387794
83602.0932331071
83601.0113927282
83591.639637802
83594.0878823152
83575.767619591
83580.5117580128
83570.9606475892
83579.1113628798
83556.0453652661
83551.9964133133
83519.7802872973
83516.8614131714
83494.3480894718
83491.8825858468
83470.7914553745
83475.0816499074
83420.0481640254
83422.197291616
83378.6444797685
83379.7772366044
83354.2358463669
83345.0015564892
83313.0560708038
83330.1345956412
83323.1243266335
83304.1880651282
83365.1374080084
83361.9434698188
83463.8339986783
83465.2505880944
83469.1699999752
83463.4923321318
83455.3276964691
83459.7245431425
83502.5217496974
83504.6689309005
83545.7414879011
83535.2654817662
83543.1161695065
83541.2068731066
83557.9743591868
83549.6011874984
83558.0274993155
83557.7023112053
83556.3459266892
83551.6098661188
83540.7501005622
83547.282131372
83544.9736056321
83546.7994986508
83558.5043249717
83558.0856720669
83573.0596443009
83570.2596439841
83576.9442337811
83578.3519692303
83590.2979804554
83586.672035674
83583.0354820335
83569.274627209
83556.9800256819
83570.8659620318
83572.2834903961
83572.4401837251
83562.0731582594
83560.9413492436
83564.0667439139
83564.0516695146
83566.8507713114
83567.2999350762
83570.1124446814
83569.0667676403
83580.4346119155
83581.1544236346
83596.5495397454
83596.2854019219
83619.961690949
83619.893170168
83611.6783509586
83611.7986218197
83643.8398668876
83643.43152789
83675.5046670477
83676.5276515419
83712.2604526708
83710.7178617755
83725.3656464648
83725.1885346649
83721.4618311831
83721.2811571817
83742.9398086501
83743.4282828867
83759.7037503504
83759.4983049318
83776.4764671926
83776.711526351
83781.9772287311
83780.3832256003
83794.9189456808
83796.0940208891
83808.8997879078
83807.7912065734
83814.8303894463
83815.470370378
83821.6701317762
83819.8152521322
83825.8199422401
83827.2516537543
83830.1433684971
83829.0770941402
83827.4391622434
83828.2119733096
83832.704023233
83831.6034119984
83829.6435811963
83830.509296333
83825.9031768042
83825.3161114205
83821.6998078741
83822.1814617002
83816.1450580141
83815.8480768061
83810.4668728463
83810.7141704018
83804.1185282164
83803.9910574963
83798.5509582524
83798.6451702088
83804.6895958097
83804.515139629
83798.2957225797
83798.3746279666
83792.4199883241
83792.3525339832
83785.9673352983
83785.9789900511
83779.9753575156
83779.9885200116
83773.6678551812
83773.6094171471
83767.5500913041
83767.6135536624
83761.6089434711
83761.4786829304
83755.7746286737
83755.8930031614
83761.5913161979
83761.4493266418
83755.4499916643
83755.7795358982
83761.1524748021
83760.9131704897
83755.767357689
83755.6772042115
83760.8047479722
83760.8008919848
83757.0532289274
83756.7939804929
83760.5270763263
83760.686307382
83756.20861307
83756.0415719207
83763.7119328596
83764.1043389125
83770.3075473555
83769.6983047887
83761.2957938687
83760.9211139342
83753.0307929667
83753.9835671494
83749.2955824311
83746.9719534465
83745.1871678344
83747.520807581
83742.3184608584
83740.8604325742
83735.3713081872
83735.9119991141
83730.2105303425
83730.2311736174
83722.787327897
83721.5806384637
83713.0083821066
83714.7613114857
83702.8274430904
83703.3860284807
83691.3867369112
83689.1443141498
83693.8278683198
83692.110736875
83680.4752710909
83680.921215465
83678.9667610854
83679.8976077034
83676.9357767854
83676.0564550869
83677.8811357092
83675.3354153256
83659.9797172145
83665.6417169285
83642.5330756938
83647.5279439901
83611.6141656492
83609.1190728477
83562.908390075
83561.6195609674
83516.2812421405
83519.8763445192
83493.0416184887
83488.3314370605
83453.1601500112
83457.4790339386
83499.9356696157
83497.9789019025
83533.2470153681
83534.1865695626
83507.4850842142
83506.3878166121
83535.5468531188
83536.1556891527
83566.1709163175
83562.9957005497
83580.0933827857
83585.3951732614
83573.8511862271
83560.0317107282
83531.2311714566
83487.4915292333
83442.2526627096
83390.2527481291
83346.3933820298
83323.1026242742
83321.1541857418
83304.7555040849
83302.5009235237
83359.0219697289
83356.8668627137
83418.8633698846
83416.5274735757
83406.4475205455
83405.3590379582
83398.4871329715
83399.4428015313
83392.2722189116
83391.2034318177
83451.8362219421
83453.7283996093
83502.0965660772
83502.5699639641
83541.5570506483
83536.149825496
83535.5917255634
83536.5682938107
83505.5560226386
83502.9853260753
83456.3962005257
83455.4422867798
83452.9706448786
83454.7418119128
83499.5653310243
83500.7714721744
83539.834406635
83532.6027477137
83532.8860423993
83534.4313904479
83509.4337612774
83515.602253799
83535.6931944266
83536.5469223644
83504.727742003
83465.5035287397
83467.2077314856
83428.6629917463
83435.0036142089
83369.5488639138
83372.3656242269
83415.1300261849
83352.5401013269
83346.4270547196
83346.8800013686
83332.1372960604
83330.4323804278
83314.4109473303
83316.8110407355
83306.8267776284
83305.7511235786
83314.8742032269
83315.270521981
83312.8057200128
83309.844100639
83308.8336271193
83314.6399211598
83309.8238240285
83306.7278964272
83306.1086145093
83311.9203291012
83286.4235670534
83295.2663089885
83295.6262741299
83283.1965807861
83293.2903015897
83297.9946345708
83303.7655424405
83302.824351885
83311.0847639707
83311.2072927458
83323.670964863
83323.7791046413
83327.730679136
83331.9462830095
83333.275540333
83329.3986161073
83332.0840013846
83333.9622530737
83363.9914121098
83364.698043355
83373.5874091828
83373.1757982642
83384.5380189409
83384.7219244521
83399.5990408162
83399.0592218195
83415.0380992075
83415.807725273
83432.5254567082
83431.4947634229
83446.9768591241
83448.195436913
83462.2052556351
83460.9031573702
83472.0702477756
83473.2415888223
83482.7624023305
83482.0686072036
83490.9911987409
83490.7868325028
83503.9432648767
83504.9574117876
83526.3016426696
83524.3136993506
83563.8169849361
83565.9947803109
83625.3547696355
83624.504682602
83694.5576747208
83693.9312248362
83752.2228200965
83753.89064788
83786.7924803865
83784.9843604878
83800.8895561106
83802.4289527938
83809.7637742526
83808.2802322475
83813.3644885041
83814.8881906986
83817.4118689649
83816.0476049154
83818.359024438
83819.5354615073
83819.2762530122
83818.3239690219
83817.482898882
83818.2920975953
83815.4293692271
83814.9117231972
83811.9655207696
83812.3419859898
83807.8291645436
83807.5285868779
83802.7702221993
83802.9843567873
83797.395339344
83797.3027346662
83791.6242959014
83791.6714723013
83785.5299709232
83785.5069514388
83779.360637432
83779.3253300746
83773.0880271399
83773.171727682
83767.1108259676
83767.0331335176
83772.3322808792
83772.3964991804
83766.3174807769
83766.0425467578
83771.1416573908
83771.3246814221
83765.6462617956
83765.7768257594
83770.385927085
83770.3336110033
83765.9568927265
83766.2794678865
83769.2947779642
83769.0791692001
83773.8053291656
83774.1448804473
83776.2577885828
83776.0071912467
83779.6346477068
83779.9874070899
83780.8194839404
83780.5057439713
83773.3003193333
83774.1858183887
83764.3153535845
83764.5185809699
83756.8650905478
83756.0620111831
83749.5885584289
83751.3630726016
83748.9666188915
83747.5331671888
83743.5770466138
83744.6949975036
83737.9950212342
83737.6152218018
83731.7545848125
83732.1302151244
83723.2240455715
83723.5417525684
83712.7556567763
83712.6200151706
83703.0199553435
83701.9300601167
83689.4272402974
83690.5487452424
83688.847857924
83688.8227140701
83684.7446787414
83683.7875463636
83667.4315113523
83669.3499991894
83662.4237295665
83658.7746519347
83643.7219900894
83647.2534865271
83644.0819837585
83644.9209217615
83623.8695573899
83620.6099115652
83592.6634544072
83599.2059705785
83559.2896820611
83553.2582464182
83516.6665570062
83509.7005532515
83459.5827758713
83465.9814969606
83442.4859854418
83434.8801857673
83399.1390440468
83406.666571492
83380.9782607635
83375.4408446206
83425.7747801628
83429.3839414109
83470.7846584617
83468.8152113661
83451.5801537528
83450.2475786455
83416.8210159172
83411.5139717375
83386.5385181476
83392.8082935317
83329.408241726
83326.3947620608
83291.0627931687