/*--------------------------------*- C++ -*----------------------------------*\
  =========                 |
  \\      /  F ield         | OpenFOAM: The Open Source CFD Toolbox
   \\    /   O peration     | Website:  https://openfoam.org
    \\  /    A nd           | Version:  13
     \\/     M anipulation  |
\*---------------------------------------------------------------------------*/
FoamFile
{
    format      ascii;
    class       volScalarField;
    location    "9";
    object      nuTilda;
}
// * * * * * * * * * * * * * * * * * * * * * * * * * * * * * * * * * * * * * //

dimensions      [0 2 -1 0 0 0 0];

internalField   nonuniform List<scalar> 
54636
(
0.0248072
0.0155563
0.0112958
0.00901635
0.00768187
0.0068835
0.0064093
0.00613295
0.0059755
0.00588723
0.00583773
0.00580883
0.00578994
0.00577533
0.00576217
0.00574962
0.00573826
0.00572905
0.00572656
0.0057331
0.00574596
0.00576266
0.00577859
0.00579093
0.00579941
0.00580417
0.00580641
0.00580708
0.00580664
0.00580577
0.00580482
0.00580378
0.00580293
0.00580236
0.00580172
0.00580131
0.00580096
0.00580056
0.00580033
0.00580018
0.00580025
0.00580016
0.00580009
0.00580005
0.00580003
0.00580001
0.00580001
0.0058
0.0058
0.0058
0.0058
0.0058
0.0058
0.0058
0.0058
0.0058
0.0058
0.0058
0.00579994
0.00579548
0.0407581
0.0343709
0.0299762
0.0269121
0.024783
0.0233282
0.0223588
0.021731
0.0213347
0.0210897
0.0209378
0.0208398
0.0207705
0.0207186
0.0206772
0.0206489
0.0206335
0.0206282
0.0206334
0.0206528
0.0206819
0.020717
0.0207499
0.0207764
0.020795
0.0208069
0.0208138
0.0208172
0.0208187
0.0208189
0.0208182
0.0208176
0.0208162
0.0208154
0.0208146
0.0208139
0.0208132
0.0208127
0.0208124
0.020812
0.0208118
0.0208116
0.0208115
0.0208114
0.0208113
0.0208113
0.0208113
0.0208113
0.0208113
0.0208113
0.0208112
0.0208112
0.0208112
0.0208112
0.0208112
0.0208112
0.0208112
0.0208112
0.0208109
0.0207901
0.0457664
0.0421272
0.0392012
0.0369329
0.0352376
0.0340182
0.033173
0.0326075
0.0322407
0.032008
0.0318602
0.0317622
0.0316927
0.0316637
0.031663
0.0316853
0.0317198
0.0317564
0.0317913
0.031834
0.0318767
0.0318978
0.0318973
0.0318811
0.0318564
0.0318302
0.0318062
0.0317866
0.0317716
0.0317607
0.0317528
0.0317473
0.0317433
0.0317405
0.0317385
0.0317372
0.0317361
0.0317353
0.0317348
0.0317344
0.0317341
0.0317339
0.0317337
0.0317336
0.0317335
0.0317334
0.0317334
0.0317334
0.0317334
0.0317334
0.0317334
0.0317334
0.0317334
0.0317334
0.0317334
0.0317334
0.0317334
0.0317333
0.0317327
0.0317047
0.0477049
0.0455756
0.0437441
0.0422483
0.0410862
0.0402254
0.0396151
0.0391995
0.0389262
0.0387512
0.0386402
0.0385677
0.0385371
0.0387975
0.0391191
0.0394015
0.0396115
0.0397653
0.0398573
0.0399246
0.0399717
0.039769
0.0395332
0.0393016
0.0390974
0.0389312
0.0388043
0.0387129
0.0386497
0.0386077
0.0385805
0.0385634
0.0385526
0.0385459
0.0385418
0.0385392
0.0385375
0.0385365
0.0385356
0.0385352
0.0385348
0.0385346
0.0385345
0.0385344
0.0385343
0.0385342
0.0385342
0.0385342
0.0385342
0.0385342
0.0385342
0.0385342
0.0385342
0.0385342
0.0385342
0.0385342
0.0385342
0.0385341
0.0385335
0.038508
0.0485868
0.047243
0.046058
0.0450693
0.044288
0.0437015
0.0432816
0.0429934
0.0428031
0.0426819
0.0426069
0.0425662
0.0427477
0.0432202
0.0444291
0.0451753
0.0454722
0.0456208
0.0456762
0.0456685
0.0456669
0.0456689
0.0448834
0.0442385
0.0437289
0.0433428
0.0430629
0.0428685
0.0427385
0.0426546
0.042602
0.0425698
0.0425505
0.0425391
0.0425324
0.0425284
0.0425261
0.0425246
0.0425237
0.0425232
0.0425228
0.0425226
0.0425224
0.0425223
0.0425223
0.0425222
0.0425222
0.0425222
0.0425222
0.0425222
0.0425222
0.0425222
0.0425221
0.0425221
0.0425221
0.0425221
0.0425221
0.0425221
0.0425217
0.0425016
0.0490474
0.0481343
0.0473224
0.04664
0.0460978
0.0456892
0.0453958
0.0451942
0.0450614
0.0449775
0.0449278
0.0449222
0.0453133
0.046465
0.0480653
0.0486632
0.0483909
0.0485042
0.048753
0.0484374
0.0483879
0.0479088
0.0471993
0.0465932
0.046099
0.0457153
0.0454313
0.0452304
0.045094
0.0450047
0.0449481
0.0449132
0.0448922
0.0448797
0.0448723
0.0448681
0.0448656
0.0448641
0.0448632
0.0448627
0.0448624
0.0448621
0.044862
0.0448619
0.0448619
0.0448618
0.0448618
0.0448618
0.0448618
0.0448618
0.0448618
0.0448618
0.0448618
0.0448618
0.0448618
0.0448618
0.0448618
0.0448617
0.0448614
0.0448463
0.0493156
0.0486574
0.0480704
0.0475761
0.0471829
0.0468865
0.0466737
0.0465277
0.0464317
0.0463714
0.0463362
0.0463365
0.0467685
0.0480856
0.049511
0.0497193
0.0495212
0.0495405
0.0497114
0.0495107
0.0494611
0.0487426
0.048189
0.0477096
0.0473134
0.0470018
0.0467683
0.0466012
0.0464865
0.0464106
0.0463621
0.0463319
0.0463135
0.0463025
0.0462961
0.0462923
0.0462901
0.0462888
0.046288
0.0462876
0.0462873
0.0462871
0.046287
0.0462869
0.0462869
0.0462868
0.0462868
0.0462868
0.0462868
0.0462868
0.0462868
0.0462868
0.0462868
0.0462868
0.0462868
0.0462868
0.0462868
0.0462868
0.0462865
0.0462751
0.0494848
0.0489886
0.0485455
0.0481722
0.0478753
0.0476517
0.0474913
0.0473815
0.0473093
0.047264
0.0472376
0.0472367
0.0475687
0.0485005
0.0496735
0.0497833
0.0497321
0.0496971
0.049781
0.0497304
0.0495978
0.0490674
0.0486602
0.0483011
0.0480002
0.047761
0.0475802
0.0474498
0.0473597
0.0472997
0.0472611
0.0472369
0.0472221
0.0472133
0.0472081
0.047205
0.0472032
0.0472022
0.0472015
0.0472012
0.0472009
0.0472008
0.0472007
0.0472006
0.0472006
0.0472006
0.0472006
0.0472006
0.0472006
0.0472005
0.0472005
0.0472005
0.0472005
0.0472005
0.0472005
0.0472005
0.0472005
0.0472005
0.0472003
0.0471915
0.0495984
0.0492111
0.0488652
0.0485737
0.0483419
0.0481675
0.0480426
0.0479571
0.0479011
0.047866
0.0478458
0.0478406
0.0480014
0.0484266
0.0497532
0.0497955
0.049792
0.0497905
0.0497935
0.0497919
0.0496911
0.0492744
0.0489584
0.0486792
0.0484446
0.0482575
0.0481158
0.0480134
0.0479424
0.0478951
0.0478646
0.0478455
0.0478338
0.0478267
0.0478226
0.0478202
0.0478187
0.0478179
0.0478174
0.0478171
0.047817
0.0478169
0.0478168
0.0478167
0.0478167
0.0478167
0.0478167
0.0478167
0.0478167
0.0478167
0.0478167
0.0478167
0.0478167
0.0478167
0.0478167
0.0478167
0.0478167
0.0478167
0.0478165
0.0478095
0.0496782
0.0493677
0.0490902
0.0488564
0.0486707
0.048531
0.048431
0.0483627
0.048318
0.04829
0.048274
0.0482703
0.0483965
0.0486745
0.0497836
0.0498339
0.0498347
0.0498346
0.0498343
0.0498347
0.0497545
0.0494201
0.0491667
0.0489427
0.0487544
0.0486042
0.0484904
0.0484082
0.0483512
0.0483133
0.0482888
0.0482735
0.0482641
0.0482585
0.0482552
0.0482532
0.0482521
0.0482515
0.0482511
0.0482509
0.0482507
0.0482506
0.0482506
0.0482505
0.0482505
0.0482505
0.0482505
0.0482505
0.0482505
0.0482505
0.0482505
0.0482505
0.0482505
0.0482505
0.0482505
0.0482505
0.0482505
0.0482505
0.0482503
0.0482447
0.0497364
0.0494819
0.0492545
0.0490629
0.0489108
0.0487964
0.0487147
0.0486588
0.0486224
0.0485996
0.0485864
0.0485882
0.048743
0.0491617
0.0498389
0.0498655
0.049865
0.0498639
0.0498631
0.0498646
0.0498004
0.0495269
0.0493182
0.0491339
0.0489792
0.048856
0.0487627
0.0486955
0.048649
0.048618
0.0485981
0.0485856
0.048578
0.0485735
0.0485708
0.0485693
0.0485684
0.0485679
0.0485676
0.0485674
0.0485673
0.0485672
0.0485672
0.0485671
0.0485671
0.0485671
0.0485671
0.0485671
0.0485671
0.0485671
0.0485671
0.0485671
0.0485671
0.0485671
0.0485671
0.0485671
0.0485671
0.0485671
0.048567
0.0485623
0.0497801
0.0495678
0.0493781
0.0492183
0.0490914
0.0489961
0.048928
0.0488815
0.0488512
0.0488323
0.0488214
0.0488226
0.0489822
0.0493817
0.0498639
0.0499228
0.0498903
0.0498994
0.0499221
0.049888
0.0498464
0.0496069
0.0494295
0.0492744
0.0491451
0.0490427
0.0489656
0.0489101
0.0488719
0.0488465
0.0488302
0.0488201
0.0488139
0.0488102
0.0488081
0.0488068
0.0488061
0.0488057
0.0488055
0.0488053
0.0488052
0.0488052
0.0488052
0.0488051
0.0488051
0.0488051
0.0488051
0.0488051
0.0488051
0.0488051
0.0488051
0.0488051
0.0488051
0.0488051
0.0488051
0.0488051
0.0488051
0.0488051
0.048805
0.0488011
0.0498138
0.0496341
0.0494734
0.049338
0.0492306
0.0491499
0.0490924
0.0490531
0.0490274
0.0490113
0.0490018
0.0489994
0.0490681
0.0492755
0.0498405
0.0498688
0.0498202
0.0498578
0.0498691
0.0498234
0.0498265
0.049625
0.0494851
0.049362
0.0492591
0.0491775
0.0491161
0.0490719
0.0490414
0.0490212
0.0490083
0.0490003
0.0489954
0.0489925
0.0489908
0.0489898
0.0489892
0.0489889
0.0489887
0.0489886
0.0489886
0.0489885
0.0489885
0.0489885
0.0489885
0.0489885
0.0489885
0.0489885
0.0489885
0.0489885
0.0489885
0.0489885
0.0489885
0.0489885
0.0489885
0.0489885
0.0489885
0.0489885
0.0489884
0.0489851
0.0498403
0.0496862
0.0495483
0.0494323
0.0493402
0.049271
0.0492217
0.049188
0.049166
0.049152
0.0491436
0.0491393
0.0491514
0.0492815
0.0495582
0.049695
0.0496029
0.0496442
0.0497047
0.0497072
0.0497046
0.0495687
0.0494727
0.0493888
0.0493189
0.0492633
0.0492212
0.0491908
0.0491697
0.0491557
0.0491466
0.049141
0.0491375
0.0491355
0.0491343
0.0491336
0.0491332
0.049133
0.0491328
0.0491328
0.0491327
0.0491327
0.0491327
0.0491327
0.0491326
0.0491326
0.0491326
0.0491326
0.0491326
0.0491326
0.0491326
0.0491326
0.0491326
0.0491326
0.0491326
0.0491326
0.0491326
0.0491326
0.0491326
0.0491297
0.0498616
0.0497279
0.0496083
0.0495077
0.0494278
0.0493678
0.049325
0.0492958
0.0492766
0.0492645
0.0492571
0.0492527
0.0492526
0.04928
0.049325
0.049361
0.0493721
0.0493882
0.0493998
0.0494077
0.0494118
0.0493962
0.0493743
0.04935
0.0493264
0.0493056
0.0492886
0.0492756
0.0492661
0.0492595
0.049255
0.0492522
0.0492504
0.0492493
0.0492487
0.0492483
0.049248
0.0492479
0.0492478
0.0492478
0.0492477
0.0492477
0.0492477
0.0492477
0.0492477
0.0492477
0.0492477
0.0492477
0.0492477
0.0492477
0.0492477
0.0492477
0.0492477
0.0492477
0.0492477
0.0492477
0.0492477
0.0492477
0.0492476
0.0492452
0.0498788
0.0497617
0.0496569
0.0495685
0.0494982
0.0494454
0.0494076
0.0493818
0.0493648
0.049354
0.0493473
0.0493433
0.0493413
0.0493432
0.0493495
0.0493571
0.0493628
0.0493676
0.0493715
0.0493742
0.049376
0.0493753
0.0493724
0.0493679
0.0493626
0.0493574
0.0493526
0.0493487
0.0493456
0.0493434
0.0493418
0.0493408
0.0493401
0.0493396
0.0493393
0.0493391
0.049339
0.049339
0.0493389
0.0493389
0.0493389
0.0493389
0.0493389
0.0493389
0.0493389
0.0493389
0.0493389
0.0493388
0.0493388
0.0493388
0.0493388
0.0493388
0.0493388
0.0493388
0.0493388
0.0493388
0.0493388
0.0493388
0.0493388
0.0493366
0.0498928
0.0497889
0.0496952
0.0496157
0.0495519
0.0495035
0.0494684
0.0494442
0.0494281
0.0494177
0.0494112
0.0494072
0.0494049
0.0494039
0.0494042
0.0494054
0.0494068
0.0494081
0.0494092
0.04941
0.0494104
0.0494105
0.0494102
0.0494094
0.0494084
0.0494074
0.0494063
0.0494053
0.0494046
0.049404
0.0494035
0.0494032
0.0494029
0.0494028
0.0494027
0.0494026
0.0494025
0.0494025
0.0494025
0.0494025
0.0494025
0.0494025
0.0494025
0.0494025
0.0494025
0.0494024
0.0494024
0.0494024
0.0494024
0.0494024
0.0494024
0.0494024
0.0494024
0.0494024
0.0494024
0.0494024
0.0494024
0.0494024
0.0494024
0.0494004
0.0499033
0.0498077
0.0497197
0.049643
0.0495797
0.0495302
0.0494933
0.049467
0.049449
0.0494371
0.0494295
0.0494247
0.0494218
0.0494202
0.0494195
0.04942
0.0494207
0.0494214
0.0494221
0.0494218
0.0494215
0.0494212
0.0494209
0.0494206
0.0494202
0.0494199
0.0494196
0.0494193
0.049419
0.0494188
0.0494187
0.0494185
0.0494185
0.0494184
0.0494183
0.0494183
0.0494183
0.0494182
0.0494182
0.0494182
0.0494182
0.0494182
0.0494182
0.0494182
0.0494182
0.0494182
0.0494182
0.0494182
0.0494182
0.0494182
0.0494182
0.0494182
0.0494182
0.0494182
0.0494182
0.0494182
0.0494182
0.0494182
0.0494181
0.0494163
0.0248082
0.0155614
0.0113107
0.00904733
0.00773307
0.00695628
0.00650175
0.0062412
0.00609542
0.00601517
0.00597099
0.00594561
0.00592911
0.00591614
0.00590406
0.00589215
0.00588112
0.00587201
0.00586875
0.00587354
0.00588457
0.00590018
0.00591563
0.00592796
0.00593697
0.00594184
0.00594461
0.00594552
0.00594538
0.00594481
0.00594406
0.00594307
0.0059425
0.00594193
0.00594131
0.00594097
0.00594068
0.00594032
0.00594013
0.00593998
0.00594006
0.00593997
0.00593991
0.00593987
0.00593985
0.00593984
0.00593983
0.00593983
0.00593983
0.00593983
0.00593983
0.00593983
0.00593983
0.00593983
0.00593983
0.00593983
0.00593983
0.00593982
0.00593977
0.00593504
0.0407644
0.0343978
0.0300423
0.027034
0.0249708
0.0235837
0.0226761
0.0220998
0.0217434
0.0215277
0.0213968
0.0213137
0.0212547
0.0212088
0.0211702
0.021143
0.0211277
0.0211214
0.0211234
0.0211377
0.0211614
0.0211929
0.0212243
0.0212509
0.0212707
0.0212841
0.0212924
0.0212973
0.0213002
0.0213013
0.0213014
0.0213013
0.0213005
0.0212999
0.0212993
0.0212987
0.0212983
0.0212978
0.0212976
0.0212972
0.021297
0.0212968
0.0212967
0.0212967
0.0212966
0.0212966
0.0212966
0.0212966
0.0212966
0.0212966
0.0212966
0.0212966
0.0212966
0.0212966
0.0212966
0.0212966
0.0212966
0.0212965
0.0212961
0.0212743
0.0457744
0.0421608
0.0392818
0.0370784
0.0354577
0.034313
0.0335351
0.0330254
0.032702
0.0325017
0.0323782
0.0322986
0.0322422
0.0322191
0.0322194
0.0322392
0.0322706
0.0323012
0.0323272
0.0323594
0.032391
0.0324065
0.0324057
0.0323924
0.0323724
0.0323514
0.0323326
0.0323176
0.0323061
0.0322981
0.0322922
0.0322882
0.0322853
0.0322831
0.0322816
0.0322806
0.0322797
0.0322791
0.0322786
0.0322783
0.0322781
0.0322778
0.0322777
0.0322776
0.0322775
0.0322775
0.0322774
0.0322774
0.0322774
0.0322774
0.0322774
0.0322774
0.0322774
0.0322774
0.0322774
0.0322774
0.0322774
0.0322774
0.0322768
0.0322481
0.0477114
0.0456034
0.0438113
0.04237
0.0412704
0.0404718
0.0399173
0.039548
0.0393108
0.0391637
0.0390763
0.0390247
0.0390087
0.0392749
0.0395888
0.039853
0.0400541
0.0401833
0.0402562
0.0403066
0.0403375
0.0401267
0.0398949
0.0396728
0.0394811
0.0393286
0.0392151
0.0391351
0.0390811
0.039046
0.0390238
0.03901
0.0390015
0.0389962
0.038993
0.0389909
0.0389896
0.0389887
0.0389881
0.0389877
0.0389874
0.0389872
0.0389871
0.038987
0.038987
0.0389869
0.0389869
0.0389869
0.0389869
0.0389869
0.0389869
0.0389869
0.0389869
0.0389869
0.0389869
0.0389869
0.0389869
0.0389868
0.0389862
0.0389606
0.0485915
0.0472632
0.0461075
0.0451595
0.0444249
0.0438849
0.0435066
0.0432529
0.0430898
0.0429914
0.0429387
0.0429302
0.0431661
0.0437248
0.0449573
0.045615
0.0458641
0.0460123
0.0460306
0.0460228
0.0460381
0.0459085
0.0451072
0.0444621
0.0439632
0.0435942
0.0433333
0.0431566
0.0430414
0.0429688
0.0429243
0.0428976
0.0428819
0.0428728
0.0428674
0.0428644
0.0428625
0.0428613
0.0428606
0.0428602
0.0428599
0.0428597
0.0428596
0.0428595
0.0428595
0.0428594
0.0428594
0.0428594
0.0428594
0.0428594
0.0428594
0.0428594
0.0428594
0.0428594
0.0428594
0.0428594
0.0428594
0.0428594
0.0428589
0.0428391
0.0490508
0.0481489
0.0473582
0.0467055
0.0461975
0.0458228
0.0455598
0.0453833
0.0452702
0.0452024
0.0451686
0.0451904
0.0456858
0.0470894
0.0486891
0.0488823
0.0486224
0.0487724
0.0489378
0.0486755
0.0488649
0.0481149
0.0473612
0.0467383
0.0462462
0.0458752
0.0456083
0.0454246
0.0453032
0.0452256
0.0451776
0.0451486
0.0451314
0.0451214
0.0451156
0.0451123
0.0451103
0.0451092
0.0451085
0.0451081
0.0451078
0.0451076
0.0451075
0.0451074
0.0451074
0.0451073
0.0451073
0.0451073
0.0451073
0.0451073
0.0451073
0.0451073
0.0451073
0.0451073
0.0451073
0.0451073
0.0451073
0.0451073
0.0451069
0.0450922
0.0493181
0.0486682
0.048097
0.0476248
0.047257
0.0469858
0.0467955
0.0466679
0.046586
0.0465363
0.0465097
0.0465212
0.0470364
0.0485903
0.049865
0.0498584
0.0497654
0.0497839
0.0498503
0.0497649
0.0497406
0.048838
0.0482743
0.0477932
0.0474047
0.0471067
0.0468893
0.0467377
0.0466362
0.0465707
0.0465297
0.0465047
0.0464897
0.046481
0.0464759
0.0464729
0.0464712
0.0464702
0.0464696
0.0464692
0.046469
0.0464689
0.0464688
0.0464687
0.0464687
0.0464686
0.0464686
0.0464686
0.0464686
0.0464686
0.0464686
0.0464686
0.0464686
0.0464686
0.0464686
0.0464686
0.0464686
0.0464686
0.0464683
0.0464572
0.0494867
0.0489969
0.0485659
0.0482095
0.047932
0.0477276
0.0475844
0.0474884
0.0474266
0.0473887
0.0473671
0.0473719
0.0477717
0.0489994
0.0498814
0.0498523
0.0497378
0.0497841
0.0498517
0.0497346
0.0497579
0.0491322
0.0487195
0.0483602
0.0480658
0.0478377
0.0476698
0.0475518
0.0474723
0.0474206
0.0473881
0.0473682
0.0473562
0.0473491
0.047345
0.0473426
0.0473412
0.0473404
0.0473399
0.0473396
0.0473394
0.0473393
0.0473392
0.0473392
0.0473392
0.0473391
0.0473391
0.0473391
0.0473391
0.0473391
0.0473391
0.0473391
0.0473391
0.0473391
0.0473391
0.0473391
0.0473391
0.0473391
0.0473389
0.0473304
0.0495999
0.0492176
0.0488812
0.048603
0.0483866
0.0482272
0.0481157
0.048041
0.047993
0.0479633
0.0479463
0.0479485
0.0482001
0.0490416
0.0498354
0.0498358
0.0497963
0.0498035
0.0498323
0.0497939
0.0498088
0.0493245
0.0490043
0.048725
0.0484955
0.0483172
0.0481856
0.048093
0.0480305
0.0479898
0.0479641
0.0479483
0.0479388
0.0479332
0.04793
0.0479281
0.047927
0.0479263
0.0479259
0.0479257
0.0479256
0.0479255
0.0479254
0.0479254
0.0479254
0.0479254
0.0479253
0.0479253
0.0479253
0.0479253
0.0479253
0.0479253
0.0479253
0.0479253
0.0479253
0.0479253
0.0479253
0.0479253
0.0479252
0.0479184
0.0496794
0.0493729
0.0491031
0.0488801
0.0487067
0.0485791
0.0484899
0.0484302
0.0483919
0.0483682
0.0483547
0.048357
0.0485512
0.0491755
0.0498256
0.0498417
0.0498367
0.049837
0.0498378
0.0498349
0.0498475
0.0494598
0.049203
0.0489791
0.048795
0.048652
0.0485465
0.0484722
0.048422
0.0483894
0.0483688
0.0483562
0.0483486
0.0483441
0.0483415
0.04834
0.0483391
0.0483386
0.0483383
0.0483381
0.048338
0.048338
0.0483379
0.0483379
0.0483379
0.0483379
0.0483379
0.0483378
0.0483378
0.0483378
0.0483378
0.0483378
0.0483378
0.0483378
0.0483378
0.0483378
0.0483378
0.0483378
0.0483377
0.0483323
0.0497374
0.0494863
0.0492652
0.0490824
0.0489404
0.048836
0.048763
0.0487143
0.0486831
0.048664
0.0486531
0.0486565
0.0488665
0.0494477
0.049916
0.0499078
0.0498691
0.0498788
0.0499058
0.0498673
0.0498764
0.049559
0.0493472
0.049163
0.049012
0.0488949
0.0488086
0.048748
0.0487071
0.0486805
0.0486638
0.0486535
0.0486474
0.0486438
0.0486417
0.0486405
0.0486398
0.0486394
0.0486392
0.048639
0.0486389
0.0486389
0.0486388
0.0486388
0.0486388
0.0486388
0.0486388
0.0486388
0.0486388
0.0486388
0.0486388
0.0486388
0.0486388
0.0486388
0.0486388
0.0486388
0.0486388
0.0486388
0.0486387
0.0486342
0.0497809
0.0495715
0.049387
0.0492346
0.0491162
0.0490292
0.0489684
0.0489279
0.048902
0.0488861
0.0488773
0.0488807
0.0490696
0.0495965
0.0499842
0.0499418
0.0498938
0.0499257
0.04994
0.0498918
0.0499198
0.0496368
0.0494548
0.0492992
0.049173
0.0490757
0.0490043
0.0489543
0.0489207
0.0488989
0.0488852
0.0488769
0.0488719
0.048869
0.0488673
0.0488663
0.0488657
0.0488654
0.0488652
0.0488651
0.0488651
0.048865
0.048865
0.048865
0.048865
0.048865
0.048865
0.048865
0.048865
0.048865
0.048865
0.048865
0.048865
0.048865
0.048865
0.048865
0.048865
0.048865
0.0488649
0.0488611
0.0498145
0.0496371
0.0494809
0.0493519
0.0492516
0.049178
0.0491267
0.0490924
0.0490705
0.0490569
0.0490487
0.0490483
0.0491752
0.0495462
0.0499705
0.0499399
0.0499073
0.0499125
0.0499393
0.0499081
0.0499461
0.0496643
0.049515
0.0493886
0.0492865
0.049208
0.0491506
0.0491105
0.0490836
0.0490662
0.0490552
0.0490486
0.0490446
0.0490423
0.049041
0.0490402
0.0490398
0.0490395
0.0490394
0.0490393
0.0490393
0.0490392
0.0490392
0.0490392
0.0490392
0.0490392
0.0490392
0.0490392
0.0490392
0.0490392
0.0490392
0.0490392
0.0490392
0.0490392
0.0490392
0.0490392
0.0490392
0.0490392
0.0490391
0.0490359
0.049841
0.0496888
0.0495548
0.0494442
0.0493582
0.0492951
0.0492512
0.0492218
0.049203
0.0491912
0.0491838
0.0491797
0.0492098
0.0493659
0.0496497
0.0497339
0.0497229
0.0497288
0.0497465
0.0497386
0.0497535
0.0495962
0.049498
0.0494141
0.0493457
0.0492927
0.0492535
0.0492259
0.0492073
0.0491952
0.0491875
0.0491828
0.04918
0.0491784
0.0491775
0.0491769
0.0491766
0.0491764
0.0491763
0.0491763
0.0491762
0.0491762
0.0491762
0.0491762
0.0491762
0.0491762
0.0491762
0.0491762
0.0491762
0.0491762
0.0491762
0.0491762
0.0491762
0.0491762
0.0491762
0.0491762
0.0491762
0.0491762
0.0491761
0.0491734
0.0498621
0.0497302
0.049614
0.049518
0.0494435
0.0493888
0.0493506
0.0493252
0.0493088
0.0492986
0.0492923
0.0492884
0.0492899
0.0493172
0.0493593
0.0493931
0.0494125
0.0494249
0.0494329
0.0494379
0.0494403
0.0494241
0.0494021
0.0493783
0.0493558
0.0493363
0.0493207
0.0493091
0.0493008
0.0492951
0.0492915
0.0492891
0.0492877
0.0492868
0.0492863
0.049286
0.0492858
0.0492857
0.0492856
0.0492856
0.0492856
0.0492856
0.0492855
0.0492855
0.0492855
0.0492855
0.0492855
0.0492855
0.0492855
0.0492855
0.0492855
0.0492855
0.0492855
0.0492855
0.0492855
0.0492855
0.0492855
0.0492855
0.0492855
0.0492831
0.0498793
0.0497637
0.0496618
0.0495776
0.049512
0.0494639
0.0494302
0.0494077
0.0493932
0.0493842
0.0493786
0.0493752
0.0493738
0.0493759
0.0493826
0.0493901
0.0493963
0.0494009
0.0494043
0.0494059
0.0494067
0.0494055
0.0494024
0.049398
0.049393
0.0493882
0.0493839
0.0493805
0.0493779
0.049376
0.0493747
0.0493738
0.0493733
0.0493729
0.0493727
0.0493726
0.0493725
0.0493724
0.0493724
0.0493724
0.0493724
0.0493723
0.0493723
0.0493723
0.0493723
0.0493723
0.0493723
0.0493723
0.0493723
0.0493723
0.0493723
0.0493723
0.0493723
0.0493723
0.0493723
0.0493723
0.0493723
0.0493723
0.0493723
0.0493702
0.0498932
0.0497906
0.0496996
0.0496238
0.0495642
0.04952
0.0494888
0.0494677
0.0494539
0.0494453
0.0494399
0.0494367
0.049435
0.0494344
0.0494354
0.0494369
0.0494384
0.0494397
0.0494408
0.0494409
0.0494408
0.0494405
0.04944
0.0494393
0.0494383
0.0494374
0.0494365
0.0494356
0.049435
0.0494345
0.0494341
0.0494339
0.0494337
0.0494335
0.0494335
0.0494334
0.0494334
0.0494333
0.0494333
0.0494333
0.0494333
0.0494333
0.0494333
0.0494333
0.0494333
0.0494333
0.0494333
0.0494333
0.0494333
0.0494333
0.0494333
0.0494333
0.0494333
0.0494333
0.0494333
0.0494333
0.0494333
0.0494333
0.0494332
0.0494313
0.0499036
0.0498092
0.0497234
0.0496499
0.0495906
0.0495452
0.0495122
0.0494891
0.0494737
0.0494638
0.0494575
0.0494536
0.0494515
0.0494504
0.0494504
0.0494508
0.0494513
0.0494518
0.0494523
0.0494521
0.0494516
0.0494513
0.0494509
0.0494506
0.0494503
0.04945
0.0494498
0.0494496
0.0494494
0.0494492
0.0494491
0.049449
0.0494489
0.0494489
0.0494488
0.0494488
0.0494488
0.0494488
0.0494487
0.0494487
0.0494487
0.0494487
0.0494487
0.0494487
0.0494487
0.0494487
0.0494487
0.0494487
0.0494487
0.0494487
0.0494487
0.0494487
0.0494487
0.0494487
0.0494487
0.0494487
0.0494487
0.0494487
0.0494487
0.0494469
0.0248084
0.0155623
0.011313
0.00905229
0.00774097
0.00696747
0.00651611
0.00625838
0.00611487
0.00603644
0.0059937
0.00596953
0.00595419
0.00594235
0.00593126
0.00592021
0.00590983
0.00590118
0.00589733
0.00590039
0.00590958
0.00592372
0.00593825
0.00595027
0.00595908
0.00596407
0.00596678
0.00596774
0.00596765
0.00596724
0.00596648
0.00596576
0.00596514
0.00596472
0.0059641
0.0059638
0.00596356
0.00596322
0.00596305
0.00596292
0.00596301
0.00596292
0.00596286
0.00596283
0.00596281
0.0059628
0.0059628
0.00596279
0.00596279
0.00596279
0.00596279
0.00596279
0.00596279
0.00596279
0.00596279
0.00596279
0.00596279
0.00596279
0.00596273
0.00595798
0.0407659
0.0344035
0.0300568
0.0270616
0.0250142
0.023644
0.0227526
0.0221903
0.0218456
0.021639
0.0215156
0.0214385
0.0213844
0.0213417
0.0213057
0.0212801
0.0212654
0.0212586
0.0212587
0.0212679
0.0212866
0.0213145
0.0213443
0.0213701
0.0213898
0.0214034
0.0214122
0.0214177
0.0214209
0.0214225
0.021423
0.0214231
0.0214227
0.0214222
0.0214218
0.0214213
0.021421
0.0214206
0.0214204
0.0214201
0.0214199
0.0214197
0.0214197
0.0214196
0.0214196
0.0214195
0.0214195
0.0214195
0.0214195
0.0214195
0.0214195
0.0214195
0.0214195
0.0214195
0.0214195
0.0214195
0.0214195
0.0214195
0.0214191
0.0213972
0.0457762
0.0421689
0.0393017
0.0371154
0.0355156
0.0343922
0.0336344
0.0331421
0.0328331
0.0326446
0.0325312
0.0324602
0.03241
0.0323889
0.0323912
0.0324108
0.0324401
0.0324676
0.0324893
0.0325111
0.0325345
0.0325465
0.0325458
0.0325338
0.032516
0.0324974
0.032481
0.0324682
0.0324584
0.0324518
0.032447
0.0324439
0.0324415
0.0324396
0.0324385
0.0324376
0.0324369
0.0324364
0.032436
0.0324357
0.0324355
0.0324353
0.0324352
0.0324351
0.032435
0.032435
0.032435
0.0324349
0.0324349
0.0324349
0.0324349
0.0324349
0.0324349
0.0324349
0.0324349
0.0324349
0.0324349
0.0324349
0.0324343
0.0324056
0.047713
0.0456104
0.0438288
0.042403
0.0413216
0.040542
0.0400054
0.0396515
0.0394273
0.0392931
0.039219
0.0391813
0.039173
0.0394265
0.0397418
0.039995
0.0401817
0.0402992
0.0403618
0.0403989
0.0404223
0.0402146
0.0399897
0.0397744
0.0395894
0.0394434
0.0393357
0.0392606
0.0392108
0.0391787
0.0391588
0.0391465
0.0391392
0.0391346
0.0391318
0.0391301
0.0391289
0.0391282
0.0391277
0.0391273
0.039127
0.0391269
0.0391268
0.0391267
0.0391266
0.0391266
0.0391266
0.0391266
0.0391266
0.0391266
0.0391266
0.0391266
0.0391266
0.0391266
0.0391266
0.0391265
0.0391265
0.0391265
0.0391259
0.0391005
0.0485926
0.0472684
0.0461208
0.0451845
0.044464
0.0439388
0.0435742
0.0433323
0.0431799
0.0430906
0.0430485
0.0430594
0.0433061
0.0438771
0.0451071
0.0457083
0.0459202
0.0460287
0.0460517
0.0460524
0.0460863
0.0459634
0.0451642
0.0445224
0.0440289
0.0436667
0.0434132
0.0432434
0.0431341
0.0430661
0.043025
0.0430008
0.0429867
0.0429786
0.0429739
0.0429712
0.0429696
0.0429686
0.042968
0.0429676
0.0429674
0.0429672
0.0429671
0.042967
0.042967
0.0429669
0.0429669
0.0429669
0.0429669
0.0429669
0.0429669
0.0429669
0.0429669
0.0429669
0.0429669
0.0429669
0.0429669
0.0429669
0.0429664
0.0429469
0.0490516
0.0481527
0.0473679
0.046724
0.0462264
0.0458626
0.0456098
0.0454419
0.0453361
0.0452748
0.0452492
0.0452904
0.045822
0.0472404
0.0487455
0.0488925
0.0486343
0.0487731
0.0489178
0.0486862
0.0490444
0.0481793
0.0474099
0.0467809
0.0462888
0.0459217
0.0456608
0.0454834
0.0453676
0.0452947
0.0452501
0.0452236
0.0452081
0.0451992
0.0451941
0.0451912
0.0451895
0.0451885
0.0451879
0.0451875
0.0451873
0.0451871
0.045187
0.045187
0.0451869
0.0451869
0.0451869
0.0451869
0.0451869
0.0451869
0.0451869
0.0451869
0.0451869
0.0451869
0.0451869
0.0451869
0.0451869
0.0451869
0.0451865
0.045172
0.0493187
0.048671
0.0481043
0.0476385
0.0472786
0.0470155
0.0468327
0.0467115
0.0466346
0.0465887
0.0465655
0.0465822
0.0471157
0.0487825
0.0498157
0.0497258
0.049595
0.0496206
0.0497228
0.0495959
0.0499006
0.0488461
0.0482858
0.0478093
0.0474262
0.0471346
0.0469238
0.0467784
0.0466822
0.0466208
0.0465829
0.0465601
0.0465466
0.0465388
0.0465343
0.0465317
0.0465302
0.0465294
0.0465288
0.0465285
0.0465283
0.0465282
0.0465281
0.0465281
0.046528
0.046528
0.046528
0.046528
0.046528
0.046528
0.046528
0.046528
0.046528
0.046528
0.046528
0.046528
0.046528
0.046528
0.0465277
0.0465168
0.0494872
0.048999
0.0485715
0.0482201
0.0479486
0.0477504
0.0476129
0.0475216
0.0474634
0.0474276
0.0474064
0.047409
0.0478206
0.0490671
0.0495609
0.0494114
0.0493536
0.0493579
0.0493464
0.0493419
0.0496907
0.0491336
0.0487248
0.0483697
0.0480802
0.0478574
0.0476949
0.047582
0.0475068
0.0474586
0.0474286
0.0474104
0.0473996
0.0473933
0.0473897
0.0473876
0.0473863
0.0473856
0.0473852
0.047385
0.0473848
0.0473847
0.0473846
0.0473846
0.0473846
0.0473846
0.0473845
0.0473845
0.0473845
0.0473845
0.0473845
0.0473845
0.0473845
0.0473845
0.0473845
0.0473845
0.0473845
0.0473845
0.0473843
0.0473759
0.0496002
0.0492193
0.0488856
0.0486114
0.0483996
0.0482452
0.0481381
0.0480671
0.0480217
0.0479934
0.0479761
0.0479762
0.048298
0.049224
0.0496458
0.0495189
0.0494665
0.0494479
0.0494261
0.0494362
0.049757
0.0493257
0.0490085
0.0487324
0.0485066
0.0483325
0.0482053
0.0481167
0.0480576
0.0480195
0.0479959
0.0479815
0.047973
0.0479679
0.0479651
0.0479634
0.0479624
0.0479619
0.0479615
0.0479614
0.0479612
0.0479611
0.0479611
0.0479611
0.047961
0.047961
0.047961
0.047961
0.047961
0.047961
0.047961
0.047961
0.047961
0.047961
0.047961
0.047961
0.047961
0.047961
0.0479608
0.0479542
0.0496797
0.0493743
0.0491067
0.0488868
0.0487172
0.0485936
0.048508
0.0484512
0.048415
0.0483924
0.0483787
0.04838
0.0486411
0.0493731
0.0497187
0.0496215
0.0495753
0.0495556
0.0495383
0.049543
0.0498063
0.0494605
0.0492061
0.0489848
0.0488038
0.0486642
0.0485622
0.0484912
0.0484438
0.0484134
0.0483944
0.0483829
0.0483761
0.0483721
0.0483698
0.0483684
0.0483677
0.0483672
0.048367
0.0483668
0.0483667
0.0483667
0.0483666
0.0483666
0.0483666
0.0483666
0.0483666
0.0483666
0.0483666
0.0483666
0.0483666
0.0483666
0.0483666
0.0483666
0.0483666
0.0483666
0.0483666
0.0483666
0.0483664
0.0483611
0.0497376
0.0494874
0.0492681
0.049088
0.0489491
0.0488479
0.0487779
0.0487316
0.0487022
0.048684
0.0486733
0.0486753
0.0488991
0.0494988
0.0497731
0.0496895
0.0496617
0.0496551
0.0496367
0.0496436
0.0498437
0.0495592
0.0493494
0.0491675
0.0490191
0.0489049
0.0488216
0.0487636
0.048725
0.0487002
0.0486848
0.0486755
0.04867
0.0486668
0.0486649
0.0486639
0.0486632
0.0486629
0.0486627
0.0486626
0.0486625
0.0486625
0.0486624
0.0486624
0.0486624
0.0486624
0.0486624
0.0486624
0.0486624
0.0486624
0.0486624
0.0486624
0.0486624
0.0486624
0.0486624
0.0486624
0.0486624
0.0486624
0.0486623
0.0486579
0.0497812
0.0495724
0.0493895
0.0492392
0.0491234
0.0490391
0.0489809
0.0489424
0.048918
0.048903
0.0488946
0.0488981
0.0490882
0.0495958
0.0498813
0.0498078
0.0497682
0.0497975
0.0497921
0.0497645
0.0499043
0.0496376
0.0494574
0.0493037
0.0491795
0.0490845
0.0490155
0.0489676
0.0489358
0.0489155
0.0489029
0.0488953
0.0488908
0.0488882
0.0488867
0.0488858
0.0488853
0.0488851
0.0488849
0.0488848
0.0488848
0.0488847
0.0488847
0.0488847
0.0488847
0.0488847
0.0488847
0.0488847
0.0488847
0.0488847
0.0488847
0.0488847
0.0488847
0.0488847
0.0488847
0.0488847
0.0488847
0.0488847
0.0488846
0.0488809
0.0498147
0.049638
0.049483
0.0493558
0.0492578
0.0491865
0.0491373
0.0491047
0.049084
0.0490712
0.0490631
0.0490621
0.0492178
0.0496485
0.0499838
0.0499307
0.0498949
0.0499024
0.0499288
0.0498953
0.0499757
0.0496711
0.0495218
0.0493956
0.0492943
0.0492171
0.0491612
0.0491225
0.0490969
0.0490805
0.0490704
0.0490643
0.0490607
0.0490586
0.0490575
0.0490568
0.0490564
0.0490562
0.0490561
0.049056
0.049056
0.0490559
0.0490559
0.0490559
0.0490559
0.0490559
0.0490559
0.0490559
0.0490559
0.0490559
0.0490559
0.0490559
0.0490559
0.0490559
0.0490559
0.0490559
0.0490559
0.0490559
0.0490558
0.0490527
0.0498411
0.0496895
0.0495566
0.0494476
0.0493635
0.0493024
0.0492602
0.0492324