/*--------------------------------*- C++ -*----------------------------------*\
  =========                 |
  \\      /  F ield         | OpenFOAM: The Open Source CFD Toolbox
   \\    /   O peration     | Website:  https://openfoam.org
    \\  /    A nd           | Version:  13
     \\/     M anipulation  |
\*---------------------------------------------------------------------------*/
FoamFile
{
    format      ascii;
    class       volScalarField;
    location    "9";
    object      p;
}
// * * * * * * * * * * * * * * * * * * * * * * * * * * * * * * * * * * * * * //

dimensions      [0 2 -2 0 0 0 0];

internalField   nonuniform List<scalar> 
54636
(
-1.23021e-12
-1.23269e-12
-1.23829e-12
-1.2476e-12
-1.25175e-12
-1.29603e-12
-1.26004e-12
-1.25037e-12
-1.2843e-12
-1.25992e-12
-1.22906e-12
-1.22135e-12
-1.19658e-12
-1.2073e-12
-1.17719e-12
-1.17688e-12
-1.19984e-12
-1.1621e-12
-1.15153e-12
-1.18147e-12
-1.20245e-12
-1.1917e-12
-1.1625e-12
-1.14726e-12
-1.15991e-12
-1.17532e-12
-1.19511e-12
-1.19469e-12
-1.21997e-12
-1.19886e-12
-1.21768e-12
-1.23706e-12
-1.25768e-12
-1.30757e-12
-1.29404e-12
-1.33323e-12
-1.34801e-12
-1.28819e-12
-1.25803e-12
-1.2151e-12
-1.14577e-12
-1.15338e-12
-1.15296e-12
-1.09739e-12
-1.05782e-12
-9.97758e-13
-9.38127e-13
-8.50918e-13
-7.781e-13
-7.19627e-13
-6.37532e-13
-5.47475e-13
-4.71619e-13
-4.16116e-13
-3.64422e-13
-2.89317e-13
-2.25582e-13
-1.62941e-13
-1.02974e-13
-4.30167e-14
-1.23673e-12
-1.23062e-12
-1.23298e-12
-1.25249e-12
-1.24535e-12
-1.29304e-12
-1.27898e-12
-1.24623e-12
-1.2863e-12
-1.24084e-12
-1.23569e-12
-1.22031e-12
-1.2076e-12
-1.19754e-12
-1.17847e-12
-1.17522e-12
-1.19631e-12
-1.17528e-12
-1.14813e-12
-1.17738e-12
-1.20309e-12
-1.19744e-12
-1.15811e-12
-1.15714e-12
-1.16744e-12
-1.16815e-12
-1.1837e-12
-1.19292e-12
-1.21323e-12
-1.20666e-12
-1.2258e-12
-1.24298e-12
-1.25398e-12
-1.31331e-12
-1.30177e-12
-1.32606e-12
-1.3449e-12
-1.2689e-12
-1.26227e-12
-1.22075e-12
-1.1595e-12
-1.15097e-12
-1.1549e-12
-1.10027e-12
-1.05004e-12
-1.00294e-12
-9.37178e-13
-8.60246e-13
-7.70181e-13
-7.12476e-13
-6.24839e-13
-5.53838e-13
-4.78866e-13
-4.22602e-13
-3.57601e-13
-2.92032e-13
-2.29775e-13
-1.63116e-13
-9.77824e-14
-3.61635e-14
-1.23956e-12
-1.2313e-12
-1.24272e-12
-1.25621e-12
-1.25116e-12
-1.29089e-12
-1.28181e-12
-1.23928e-12
-1.268e-12
-1.2503e-12
-1.22397e-12
-1.23299e-12
-1.2282e-12
-1.18825e-12
-1.17633e-12
-1.16496e-12
-1.20723e-12
-1.17092e-12
-1.14326e-12
-1.17952e-12
-1.21445e-12
-1.19083e-12
-1.1675e-12
-1.16074e-12
-1.17119e-12
-1.16598e-12
-1.18184e-12
-1.18942e-12
-1.20032e-12
-1.2104e-12
-1.22716e-12
-1.24494e-12
-1.26605e-12
-1.30296e-12
-1.31633e-12
-1.31911e-12
-1.32886e-12
-1.25659e-12
-1.26436e-12
-1.22615e-12
-1.1773e-12
-1.1484e-12
-1.14955e-12
-1.10381e-12
-1.05037e-12
-9.95064e-13
-9.38308e-13
-8.61775e-13
-7.68059e-13
-6.92722e-13
-6.19187e-13
-5.55766e-13
-4.84381e-13
-4.23834e-13
-3.54364e-13
-2.93997e-13
-2.30529e-13
-1.61539e-13
-1.11913e-13
-3.65253e-14
-1.24136e-12
-1.24314e-12
-1.2432e-12
-1.24184e-12
-1.26809e-12
-1.28239e-12
-1.28635e-12
-1.25111e-12
-1.25073e-12
-1.23294e-12
-1.22669e-12
-1.24721e-12
-1.22712e-12
-1.18184e-12
-1.17329e-12
-1.16315e-12
-1.21937e-12
-1.17827e-12
-1.13034e-12
-1.17039e-12
-1.21821e-12
-1.18658e-12
-1.16442e-12
-1.15772e-12
-1.17833e-12
-1.17479e-12
-1.17479e-12
-1.17833e-12
-1.18516e-12
-1.23444e-12
-1.21958e-12
-1.24054e-12
-1.29017e-12
-1.29943e-12
-1.31617e-12
-1.3117e-12
-1.31552e-12
-1.2669e-12
-1.26385e-12
-1.23695e-12
-1.16923e-12
-1.15816e-12
-1.15371e-12
-1.10163e-12
-1.04876e-12
-9.8927e-13
-9.30872e-13
-8.56751e-13
-7.6949e-13
-6.87235e-13
-6.20818e-13
-5.47632e-13
-4.89021e-13
-4.21123e-13
-3.52365e-13
-3.01317e-13
-2.35274e-13
-1.59433e-13
-1.06673e-13
-4.2272e-14
-1.21279e-12
-1.25135e-12
-1.24857e-12
-1.24261e-12
-1.29036e-12
-1.28036e-12
-1.26809e-12
-1.24286e-12
-1.24585e-12
-1.23576e-12
-1.22416e-12
-1.25165e-12
-1.22733e-12
-1.1858e-12
-1.16981e-12
-1.1692e-12
-1.23129e-12
-1.1832e-12
-1.12893e-12
-1.15122e-12
-1.18984e-12
-1.19189e-12
-1.17184e-12
-1.15827e-12
-1.17043e-12
-1.16848e-12
-1.17126e-12
-1.16825e-12
-1.19622e-12
-1.23071e-12
-1.23653e-12
-1.24853e-12
-1.2822e-12
-1.29051e-12
-1.29562e-12
-1.31042e-12
-1.3244e-12
-1.27065e-12
-1.28752e-12
-1.23113e-12
-1.16916e-12
-1.16333e-12
-1.1382e-12
-1.09887e-12
-1.04786e-12
-9.83159e-13
-9.18138e-13
-8.70632e-13
-7.85729e-13
-6.73848e-13
-6.02859e-13
-5.49681e-13
-4.95657e-13
-4.1654e-13
-3.45408e-13
-3.07961e-13
-2.4956e-13
-1.56518e-13
-1.04295e-13
-3.5288e-14
-1.21928e-12
-1.26018e-12
-1.26067e-12
-1.2489e-12
-1.28812e-12
-1.28716e-12
-1.26939e-12
-1.23263e-12
-1.24535e-12
-1.23163e-12
-1.22263e-12
-1.24125e-12
-1.22952e-12
-1.19047e-12
-1.18857e-12
-1.17251e-12
-1.20163e-12
-1.20296e-12
-1.15899e-12
-1.14766e-12
-1.19253e-12
-1.18644e-12
-1.18337e-12
-1.16923e-12
-1.18521e-12
-1.16047e-12
-1.16606e-12
-1.15543e-12
-1.20329e-12
-1.23685e-12
-1.23034e-12
-1.23746e-12
-1.28844e-12
-1.28829e-12
-1.29496e-12
-1.31003e-12
-1.3192e-12
-1.28502e-12
-1.28494e-12
-1.23752e-12
-1.177e-12
-1.16219e-12
-1.14981e-12
-1.10064e-12
-1.03263e-12
-9.74281e-13
-9.08264e-13
-8.67227e-13
-7.79823e-13
-6.7335e-13
-6.0548e-13
-5.51874e-13
-4.81912e-13
-4.09315e-13
-3.65625e-13
-3.22619e-13
-2.36754e-13
-1.4669e-13
-1.16101e-13
-3.72909e-14
-1.19728e-12
-1.27454e-12
-1.26458e-12
-1.2702e-12
-1.28609e-12
-1.26671e-12
-1.26574e-12
-1.24603e-12
-1.24606e-12
-1.23267e-12
-1.24143e-12
-1.24162e-12
-1.23904e-12
-1.18931e-12
-1.22532e-12
-1.17728e-12
-1.1567e-12
-1.20171e-12
-1.15873e-12
-1.14371e-12
-1.16564e-12
-1.19482e-12
-1.19276e-12
-1.17462e-12
-1.1687e-12
-1.16244e-12
-1.16309e-12
-1.1693e-12
-1.21178e-12
-1.23346e-12
-1.21838e-12
-1.24256e-12
-1.27534e-12
-1.28132e-12
-1.29732e-12
-1.31187e-12
-1.31581e-12
-1.29036e-12
-1.2751e-12
-1.23643e-12
-1.18729e-12
-1.16767e-12
-1.15229e-12
-1.09169e-12
-1.03018e-12
-9.82475e-13
-9.06757e-13
-8.55232e-13
-7.72312e-13
-6.58835e-13
-6.08919e-13
-5.53535e-13
-4.70073e-13
-4.01023e-13
-3.58845e-13
-3.29957e-13
-2.44786e-13
-1.54821e-13
-1.16189e-13
-4.8394e-14
-1.21494e-12
-1.26906e-12
-1.2772e-12
-1.27673e-12
-1.27235e-12
-1.25856e-12
-1.24349e-12
-1.25089e-12
-1.24535e-12
-1.23031e-12
-1.24718e-12
-1.24343e-12
-1.26379e-12
-1.15562e-12
-1.2158e-12
-1.22545e-12
-1.21388e-12
-1.18727e-12
-1.18577e-12
-1.14018e-12
-1.14226e-12
-1.18963e-12
-1.19094e-12
-1.16528e-12
-1.17573e-12
-1.17214e-12
-1.16582e-12
-1.16405e-12
-1.19408e-12
-1.23147e-12
-1.22868e-12
-1.23224e-12
-1.25674e-12
-1.29406e-12
-1.29027e-12
-1.31005e-12
-1.32014e-12
-1.29283e-12
-1.27193e-12
-1.23675e-12
-1.19871e-12
-1.17134e-12
-1.15514e-12
-1.07909e-12
-1.00653e-12
-9.7528e-13
-9.15117e-13
-8.57272e-13
-7.72018e-13
-6.54901e-13
-6.06605e-13
-5.43446e-13
-4.63826e-13
-4.05562e-13
-3.61436e-13
-3.18675e-13
-2.50104e-13
-1.65259e-13
-1.00521e-13
-4.65641e-14
-1.22177e-12
-1.26273e-12
-1.28353e-12
-1.29104e-12
-1.27531e-12
-1.25677e-12
-1.2485e-12
-1.23715e-12
-1.24027e-12
-1.24166e-12
-1.25647e-12
-1.23191e-12
-1.24003e-12
-1.18508e-12
-1.2058e-12
-1.22748e-12
-1.17258e-12
-1.17052e-12
-1.2064e-12
-1.13539e-12
-1.12551e-12
-1.17097e-12
-1.19311e-12
-1.17085e-12
-1.17926e-12
-1.18232e-12
-1.15871e-12
-1.1651e-12
-1.18859e-12
-1.22411e-12
-1.2428e-12
-1.23933e-12
-1.24856e-12
-1.2794e-12
-1.28634e-12
-1.31574e-12
-1.32975e-12
-1.30106e-12
-1.28328e-12
-1.22213e-12
-1.18701e-12
-1.16693e-12
-1.1576e-12
-1.0671e-12
-1.00651e-12
-9.78962e-13
-9.04564e-13
-8.63378e-13
-7.79175e-13
-6.42934e-13
-6.11214e-13
-5.52889e-13
-4.70135e-13
-4.05031e-13
-3.56104e-13
-3.20205e-13
-2.48916e-13
-1.56163e-13
-8.66778e-14
-3.53947e-14
-1.21605e-12
-1.2593e-12
-1.28259e-12
-1.29116e-12
-1.28651e-12
-1.25836e-12
-1.25618e-12
-1.23508e-12
-1.24703e-12
-1.2315e-12
-1.26857e-12
-1.24513e-12
-1.20324e-12
-1.19086e-12
-1.16714e-12
-1.1952e-12
-1.175e-12
-1.17519e-12
-1.14903e-12
-1.15507e-12
-1.13363e-12
-1.18849e-12
-1.19486e-12
-1.17818e-12
-1.16609e-12
-1.17157e-12
-1.14876e-12
-1.18574e-12
-1.17414e-12
-1.23261e-12
-1.23215e-12
-1.23375e-12
-1.26427e-12
-1.27231e-12
-1.27196e-12
-1.32322e-12
-1.31977e-12
-1.31331e-12
-1.26126e-12
-1.2487e-12
-1.19779e-12
-1.14241e-12
-1.13783e-12
-1.07644e-12
-1.02335e-12
-9.85479e-13
-8.84323e-13
-8.45571e-13
-7.61487e-13
-6.43844e-13
-6.22849e-13
-5.62589e-13
-4.74606e-13
-4.16077e-13
-3.57924e-13
-3.09119e-13
-2.48986e-13
-1.44461e-13
-6.61145e-14
-3.38278e-14
-1.22996e-12
-1.24144e-12
-1.27117e-12
-1.27613e-12
-1.30327e-12
-1.25651e-12
-1.26469e-12
-1.2315e-12
-1.22639e-12
-1.23035e-12
-1.27758e-12
-1.2627e-12
-1.21964e-12
-1.19442e-12
-1.17764e-12
-1.19475e-12
-1.11859e-12
-1.1549e-12
-1.15237e-12
-1.15075e-12
-1.1647e-12
-1.19317e-12
-1.19553e-12
-1.16927e-12
-1.15813e-12
-1.16739e-12
-1.1507e-12
-1.18285e-12
-1.19645e-12
-1.24309e-12
-1.21872e-12
-1.23245e-12
-1.25313e-12
-1.2554e-12
-1.28202e-12
-1.32613e-12
-1.32126e-12
-1.31903e-12
-1.26354e-12
-1.22951e-12
-1.19879e-12
-1.14859e-12
-1.13967e-12
-1.06779e-12
-1.00864e-12
-9.77423e-13
-8.81891e-13
-8.34655e-13
-7.39634e-13
-6.57226e-13
-6.41139e-13
-5.63519e-13
-4.7019e-13
-4.17191e-13
-3.5961e-13
-3.04298e-13
-2.51704e-13
-1.33392e-13
-5.95448e-14
-3.78326e-14
-1.22867e-12
-1.2381e-12
-1.27376e-12
-1.27627e-12
-1.29401e-12
-1.24267e-12
-1.26557e-12
-1.22147e-12
-1.23576e-12
-1.23456e-12
-1.27213e-12
-1.27747e-12
-1.21736e-12
-1.14961e-12
-1.15533e-12
-1.11436e-12
-1.17489e-12
-1.18459e-12
-1.13503e-12
-1.16792e-12
-1.1701e-12
-1.20968e-12
-1.18261e-12
-1.15095e-12
-1.17423e-12
-1.16606e-12
-1.15889e-12
-1.18039e-12
-1.20264e-12
-1.22985e-12
-1.22692e-12
-1.21972e-12
-1.24342e-12
-1.26221e-12
-1.27788e-12
-1.31061e-12
-1.33371e-12
-1.30908e-12
-1.25095e-12
-1.2266e-12
-1.2147e-12
-1.16263e-12
-1.12006e-12
-1.0507e-12
-1.00879e-12
-9.69902e-13
-8.75052e-13
-8.24792e-13
-7.37619e-13
-6.70043e-13
-6.33166e-13
-5.5413e-13
-4.77024e-13
-4.28892e-13
-3.66707e-13
-2.88413e-13
-2.38908e-13
-1.53066e-13
-5.3894e-14
-3.07404e-14
-1.23539e-12
-1.22699e-12
-1.27889e-12
-1.26866e-12
-1.27483e-12
-1.24536e-12
-1.25839e-12
-1.22725e-12
-1.23255e-12
-1.248e-12
-1.26952e-12
-1.27613e-12
-1.21027e-12
-1.16156e-12
-1.20408e-12
-1.14808e-12
-1.14404e-12
-1.19223e-12
-1.16504e-12
-1.1377e-12
-1.15455e-12
-1.18822e-12
-1.18508e-12
-1.15602e-12
-1.17319e-12
-1.16751e-12
-1.17123e-12
-1.16619e-12
-1.20038e-12
-1.21736e-12
-1.23044e-12
-1.22782e-12
-1.24095e-12
-1.27171e-12
-1.29093e-12
-1.28854e-12
-1.32983e-12
-1.2978e-12
-1.25154e-12
-1.22445e-12
-1.22864e-12
-1.18285e-12
-1.11951e-12
-1.02928e-12
-9.94762e-13
-9.64861e-13
-8.90019e-13
-8.16286e-13
-7.3715e-13
-6.77532e-13
-6.25807e-13
-5.61534e-13
-4.72834e-13
-4.26516e-13
-3.74396e-13
-2.95541e-13
-2.25184e-13
-1.31421e-13
-5.6675e-14
-3.15217e-14
-1.24104e-12
-1.22303e-12
-1.27035e-12
-1.25893e-12
-1.27433e-12
-1.25873e-12
-1.25149e-12
-1.22636e-12
-1.23613e-12
-1.24855e-12
-1.26525e-12
-1.26169e-12
-1.22367e-12
-1.20716e-12
-1.21446e-12
-1.15214e-12
-1.1698e-12
-1.19908e-12
-1.16702e-12
-1.15228e-12
-1.12374e-12
-1.18451e-12
-1.19507e-12
-1.15676e-12
-1.16627e-12
-1.16859e-12
-1.18078e-12
-1.16988e-12
-1.19259e-12
-1.22166e-12
-1.23592e-12
-1.23318e-12
-1.23157e-12
-1.26756e-12
-1.29802e-12
-1.29368e-12
-1.32467e-12
-1.29237e-12
-1.2505e-12
-1.2251e-12
-1.22907e-12
-1.18639e-12
-1.11501e-12
-1.03597e-12
-9.86244e-13
-9.41521e-13
-8.77513e-13
-8.20777e-13
-7.50608e-13
-6.72517e-13
-6.11063e-13
-5.53874e-13
-4.79381e-13
-4.3611e-13
-3.70514e-13
-2.93338e-13
-2.20624e-13
-1.20179e-13
-6.05561e-14
-3.48779e-14
-1.25373e-12
-1.21863e-12
-1.25921e-12
-1.26366e-12
-1.28384e-12
-1.23801e-12
-1.26587e-12
-1.22509e-12
-1.23477e-12
-1.25455e-12
-1.27057e-12
-1.27454e-12
-1.2123e-12
-1.19135e-12
-1.1891e-12
-1.14996e-12
-1.17e-12
-1.20964e-12
-1.16223e-12
-1.14448e-12
-1.13744e-12
-1.18843e-12
-1.20087e-12
-1.1637e-12
-1.17574e-12
-1.16813e-12
-1.17278e-12
-1.1823e-12
-1.18406e-12
-1.2202e-12
-1.23345e-12
-1.24974e-12
-1.22304e-12
-1.264e-12
-1.30913e-12
-1.2931e-12
-1.30158e-12
-1.30821e-12
-1.24394e-12
-1.23069e-12
-1.22931e-12
-1.19777e-12
-1.11301e-12
-1.03506e-12
-9.87929e-13
-9.31108e-13
-8.79032e-13
-8.18573e-13
-7.53646e-13
-6.72203e-13
-6.05715e-13
-5.55023e-13
-4.71621e-13
-4.2196e-13
-3.60319e-13
-2.92169e-13
-2.32114e-13
-1.25951e-13
-5.2416e-14
-2.3573e-14
-1.25664e-12
-1.22911e-12
-1.23277e-12
-1.2684e-12
-1.28255e-12
-1.24149e-12
-1.25214e-12
-1.22539e-12
-1.22291e-12
-1.25672e-12
-1.27275e-12
-1.27697e-12
-1.20695e-12
-1.19951e-12
-1.17571e-12
-1.15106e-12
-1.16181e-12
-1.20824e-12
-1.15656e-12
-1.13926e-12
-1.13325e-12
-1.19261e-12
-1.18328e-12
-1.16333e-12
-1.18365e-12
-1.17032e-12
-1.17899e-12
-1.17505e-12
-1.1906e-12
-1.22465e-12
-1.23677e-12
-1.24112e-12
-1.24113e-12
-1.24358e-12
-1.30739e-12
-1.29975e-12
-1.30133e-12
-1.29878e-12
-1.26372e-12
-1.23072e-12
-1.22238e-12
-1.20569e-12
-1.11398e-12
-1.03298e-12
-9.90347e-13
-9.31917e-13
-8.73453e-13
-8.22689e-13
-7.52088e-13
-6.71061e-13
-6.11559e-13
-5.43959e-13
-4.62341e-13
-4.09849e-13
-3.51062e-13
-2.89508e-13
-2.30769e-13
-1.30398e-13
-6.20926e-14
-9.99878e-15
-1.26804e-12
-1.22656e-12
-1.20954e-12
-1.26333e-12
-1.28285e-12
-1.23881e-12
-1.26293e-12
-1.23035e-12
-1.23066e-12
-1.25265e-12
-1.2894e-12
-1.27305e-12
-1.20746e-12
-1.20198e-12
-1.1554e-12
-1.14049e-12
-1.16121e-12
-1.20693e-12
-1.15938e-12
-1.14933e-12
-1.13291e-12
-1.19346e-12
-1.18962e-12
-1.17488e-12
-1.20862e-12
-1.15519e-12
-1.16699e-12
-1.1755e-12
-1.19066e-12
-1.24188e-12
-1.23304e-12
-1.27097e-12
-1.22267e-12
-1.22233e-12
-1.30647e-12
-1.30059e-12
-1.30212e-12
-1.30289e-12
-1.25969e-12
-1.22811e-12
-1.22468e-12
-1.213e-12
-1.11741e-12
-1.03585e-12
-9.78738e-13
-9.38187e-13
-8.70372e-13
-8.17125e-13
-7.5749e-13
-6.83137e-13
-6.19791e-13
-5.34293e-13
-4.65287e-13
-3.89677e-13
-3.27769e-13
-3.00211e-13
-2.37745e-13
-1.36048e-13
-5.74561e-14
-1.18122e-14
-1.26898e-12
-1.2333e-12
-1.21682e-12
-1.27915e-12
-1.27749e-12
-1.22315e-12
-1.264e-12
-1.22788e-12
-1.21475e-12
-1.25052e-12
-1.27789e-12
-1.26564e-12
-1.21984e-12
-1.18555e-12
-1.17686e-12
-1.14199e-12
-1.14918e-12
-1.2187e-12
-1.13999e-12
-1.1615e-12
-1.13887e-12
-1.18584e-12
-1.20148e-12
-1.18716e-12
-1.20648e-12
-1.14915e-12
-1.16528e-12
-1.16628e-12
-1.20158e-12
-1.23203e-12
-1.25367e-12
-1.27069e-12
-1.21372e-12
-1.18573e-12
-1.29722e-12
-1.33393e-12
-1.30769e-12
-1.31002e-12
-1.26165e-12
-1.21966e-12
-1.21124e-12
-1.21913e-12
-1.10691e-12
-1.04012e-12
-9.87425e-13
-9.40931e-13
-8.79847e-13
-8.17921e-13
-7.54048e-13
-6.78135e-13
-6.15744e-13
-5.31284e-13
-4.65037e-13
-3.97006e-13
-3.2124e-13
-2.85136e-13
-2.4785e-13
-1.46306e-13
-4.50024e-14
2.77291e-15
-1.2358e-12
-1.23408e-12
-1.24072e-12
-1.23938e-12
-1.24964e-12
-1.29755e-12
-1.26246e-12
-1.26442e-12
-1.26678e-12
-1.25177e-12
-1.23383e-12
-1.21867e-12
-1.21359e-12
-1.19938e-12
-1.18291e-12
-1.19069e-12
-1.18817e-12
-1.15746e-12
-1.15798e-12
-1.16968e-12
-1.20415e-12
-1.17411e-12
-1.16781e-12
-1.16368e-12
-1.16856e-12
-1.16844e-12
-1.18921e-12
-1.1832e-12
-1.21715e-12
-1.2053e-12
-1.23005e-12
-1.24359e-12
-1.25062e-12
-1.30322e-12
-1.29752e-12
-1.3203e-12
-1.34231e-12
-1.28377e-12
-1.25641e-12
-1.21892e-12
-1.1624e-12
-1.16229e-12
-1.15464e-12
-1.09587e-12
-1.0538e-12
-1.00056e-12
-9.32164e-13
-8.46641e-13
-7.85017e-13
-7.1545e-13
-6.3677e-13
-5.53768e-13
-4.7919e-13
-4.1906e-13
-3.58607e-13
-2.85939e-13
-2.32278e-13
-1.61492e-13
-9.87664e-14
-4.26746e-14
-1.24236e-12
-1.22985e-12
-1.23332e-12
-1.24612e-12
-1.25085e-12
-1.29504e-12
-1.2746e-12
-1.24824e-12
-1.27276e-12
-1.24049e-12
-1.2377e-12
-1.22094e-12
-1.22171e-12
-1.18666e-12
-1.18579e-12
-1.18677e-12
-1.18944e-12
-1.16574e-12
-1.14817e-12
-1.17405e-12
-1.20749e-12
-1.17181e-12
-1.17337e-12
-1.15768e-12
-1.16393e-12
-1.17878e-12
-1.17824e-12
-1.18992e-12
-1.20898e-12
-1.20982e-12
-1.22828e-12
-1.23923e-12
-1.26054e-12
-1.30389e-12
-1.30469e-12
-1.32311e-12
-1.33516e-12
-1.27607e-12
-1.25415e-12
-1.22357e-12
-1.16822e-12
-1.15527e-12
-1.15771e-12
-1.10084e-12
-1.05127e-12
-1.00449e-12
-9.33285e-13
-8.50445e-13
-7.78239e-13
-7.08027e-13
-6.2869e-13
-5.55014e-13
-4.80566e-13
-4.23637e-13
-3.59931e-13
-2.87377e-13
-2.26684e-13
-1.5753e-13
-1.05342e-13
-4.05401e-14
-1.24854e-12
-1.23412e-12
-1.22956e-12
-1.25177e-12
-1.25831e-12
-1.2987e-12
-1.27604e-12
-1.24056e-12
-1.25783e-12
-1.24619e-12
-1.22148e-12
-1.23046e-12
-1.22781e-12
-1.18135e-12
-1.18498e-12
-1.17959e-12
-1.19758e-12
-1.17258e-12
-1.14348e-12
-1.17905e-12
-1.20503e-12
-1.17753e-12
-1.17944e-12
-1.1695e-12
-1.1589e-12
-1.17698e-12
-1.17356e-12
-1.19195e-12
-1.20659e-12
-1.1976e-12
-1.2324e-12
-1.24749e-12
-1.27293e-12
-1.29161e-12
-1.3193e-12
-1.31661e-12
-1.32883e-12
-1.26646e-12
-1.26255e-12
-1.23008e-12
-1.17652e-12
-1.14943e-12
-1.15733e-12
-1.10323e-12
-1.04421e-12
-9.9866e-13
-9.38465e-13
-8.56529e-13
-7.69607e-13
-6.88614e-13
-6.2684e-13
-5.55647e-13
-4.85072e-13
-4.26412e-13
-3.50784e-13
-2.93748e-13
-2.27273e-13
-1.58159e-13
-1.15485e-13
-3.90913e-14
-1.24443e-12
-1.24055e-12
-1.24046e-12
-1.24238e-12
-1.26859e-12
-1.29175e-12
-1.27073e-12
-1.2452e-12
-1.2474e-12
-1.22863e-12
-1.23397e-12
-1.24891e-12
-1.22419e-12
-1.1774e-12
-1.1757e-12
-1.17154e-12
-1.21596e-12
-1.18292e-12
-1.12453e-12
-1.17723e-12
-1.20818e-12
-1.18064e-12
-1.18189e-12
-1.16536e-12
-1.16452e-12
-1.16638e-12
-1.18141e-12
-1.17687e-12
-1.19872e-12
-1.21245e-12
-1.23477e-12
-1.23942e-12
-1.28945e-12
-1.29725e-12
-1.31718e-12
-1.30681e-12
-1.32323e-12
-1.26799e-12
-1.26545e-12
-1.23307e-12
-1.17238e-12
-1.15604e-12
-1.16076e-12
-1.10835e-12
-1.04435e-12
-9.8799e-13
-9.25667e-13
-8.48171e-13
-7.77233e-13
-6.86089e-13
-6.18102e-13
-5.49152e-13
-4.92719e-13
-4.24971e-13
-3.52267e-13
-2.98869e-13
-2.32055e-13
-1.56636e-13
-1.11392e-13
-3.87576e-14
-1.23096e-12
-1.24719e-12
-1.25202e-12
-1.24269e-12
-1.2827e-12
-1.27532e-12
-1.26719e-12
-1.24552e-12
-1.24743e-12
-1.22299e-12
-1.22597e-12
-1.25849e-12
-1.22811e-12
-1.17737e-12
-1.17668e-12
-1.16562e-12
-1.215e-12
-1.17426e-12
-1.14294e-12
-1.16802e-12
-1.1963e-12
-1.18392e-12
-1.18224e-12
-1.16311e-12
-1.17139e-12
-1.1603e-12
-1.17285e-12
-1.17053e-12
-1.20055e-12
-1.21578e-12
-1.23421e-12
-1.24392e-12
-1.29457e-12
-1.28977e-12
-1.29389e-12
-1.30851e-12
-1.32577e-12
-1.2739e-12
-1.27988e-12
-1.23677e-12
-1.18173e-12
-1.15965e-12
-1.14994e-12
-1.10391e-12
-1.04574e-12
-9.84861e-13
-9.18591e-13
-8.45904e-13
-7.74434e-13
-6.84736e-13
-6.20773e-13
-5.55289e-13
-4.89903e-13
-4.11126e-13
-3.46047e-13
-3.08658e-13
-2.36801e-13
-1.56547e-13
-1.10846e-13
-3.72755e-14
-1.22134e-12
-1.25243e-12
-1.26888e-12
-1.24913e-12
-1.28952e-12
-1.26751e-12
-1.26621e-12
-1.24227e-12
-1.24615e-12
-1.22283e-12
-1.22845e-12
-1.24932e-12
-1.24281e-12
-1.18018e-12
-1.1613e-12
-1.19154e-12
-1.2073e-12
-1.21445e-12
-1.14242e-12
-1.1595e-12
-1.19972e-12
-1.18906e-12
-1.1825e-12
-1.1719e-12
-1.17804e-12
-1.15717e-12
-1.16929e-12
-1.16521e-12
-1.20696e-12
-1.21236e-12
-1.23e-12
-1.24275e-12
-1.27968e-12
-1.2981e-12
-1.29657e-12
-1.3089e-12
-1.3223e-12
-1.29702e-12
-1.27583e-12
-1.23667e-12
-1.17737e-12
-1.16248e-12
-1.13879e-12
-1.10597e-12
-1.04083e-12
-9.79066e-13
-9.0846e-13
-8.44613e-13
-7.73931e-13
-6.77674e-13
-6.12771e-13
-5.56772e-13
-4.84165e-13
-4.04998e-13
-3.55417e-13
-3.18347e-13
-2.33537e-13
-1.56844e-13
-1.14945e-13
-3.69678e-14
-1.2081e-12
-1.27071e-12
-1.26841e-12
-1.26656e-12
-1.27789e-12
-1.26436e-12
-1.25995e-12
-1.24653e-12
-1.25278e-12
-1.22752e-12
-1.22973e-12
-1.2472e-12
-1.24603e-12
-1.18497e-12
-1.18379e-12
-1.17421e-12
-1.15603e-12
-1.1979e-12
-1.18673e-12
-1.18364e-12
-1.18551e-12
-1.19803e-12
-1.17768e-12
-1.17255e-12
-1.16505e-12
-1.16987e-12
-1.17058e-12
-1.16921e-12
-1.19824e-12
-1.21234e-12
-1.23829e-12
-1.24087e-12
-1.26027e-12
-1.29833e-12
-1.30023e-12
-1.31149e-12
-1.33128e-12
-1.29316e-12
-1.26565e-12
-1.23209e-12
-1.19351e-12
-1.15914e-12
-1.13927e-12
-1.10419e-12
-1.0344e-12
-9.79045e-13
-8.9697e-13
-8.344e-13
-7.73195e-13
-6.77293e-13
-6.12702e-13
-5.55779e-13
-4.70304e-13
-3.99385e-13
-3.57048e-13
-3.19693e-13
-2.38392e-13
-1.58478e-13
-1.10995e-13
-4.48616e-14
-1.21809e-12
-1.27406e-12
-1.27293e-12
-1.27439e-12
-1.27137e-12
-1.2539e-12
-1.25044e-12
-1.24717e-12
-1.25091e-12
-1.22891e-12
-1.23805e-12
-1.24587e-12
-1.25053e-12
-1.17225e-12
-1.17299e-12
-1.23733e-12
-1.18675e-12
-1.14928e-12
-1.19415e-12
-1.13614e-12
-1.17038e-12
-1.19388e-12
-1.18515e-12
-1.17785e-12
-1.16512e-12
-1.17335e-12
-1.16847e-12
-1.16461e-12
-1.19116e-12
-1.21717e-12
-1.23859e-12
-1.23104e-12
-1.26383e-12
-1.30336e-12
-1.28559e-12
-1.31281e-12
-1.3291e-12
-1.29469e-12
-1.27749e-12
-1.22176e-12
-1.19448e-12
-1.16062e-12
-1.14689e-12
-1.08974e-12
-1.01832e-12
-9.75567e-13
-9.0669e-13
-8.45738e-13
-7.72919e-13
-6.6756e-13
-6.06204e-13
-5.46336e-13
-4.62574e-13
-4.03324e-13
-3.62075e-13
-3.10311e-13
-2.43643e-13
-1.62314e-13
-1.05851e-13
-5.0244e-14
-1.22746e-12
-1.25035e-12
-1.27766e-12
-1.29046e-12
-1.28513e-12
-1.24484e-12
-1.25833e-12
-1.23804e-12
-1.2338e-12
-1.2442e-12
-1.25483e-12
-1.23044e-12
-1.2375e-12
-1.19733e-12
-1.20291e-12
-1.208e-12
-1.15682e-12
-1.18279e-12
-1.20755e-12
-1.1322e-12
-1.14251e-12
-1.18248e-12
-1.18979e-12
-1.1718e-12
-1.17127e-12
-1.18868e-12
-1.15193e-12
-1.1645e-12
-1.18915e-12
-1.21611e-12
-1.24402e-12
-1.23826e-12
-1.25679e-12
-1.28692e-12
-1.2893e-12
-1.3148e-12
-1.33123e-12
-1.30622e-12
-1.26407e-12
-1.23182e-12
-1.19557e-12
-1.15218e-12
-1.14429e-12
-1.08402e-12
-1.01148e-12
-9.72307e-13
-8.96989e-13
-8.47011e-13
-7.78078e-13
-6.50343e-13
-6.14869e-13
-5.55455e-13
-4.77081e-13
-4.08482e-13
-3.52703e-13
-3.15867e-13
-2.42409e-13
-1.55438e-13
-8.87392e-14
-3.97828e-14
-1.22691e-12
-1.25841e-12
-1.27637e-12
-1.28638e-12
-1.29003e-12
-1.25722e-12
-1.24602e-12
-1.23603e-12
-1.24567e-12
-1.24081e-12
-1.26123e-12
-1.24312e-12
-1.22641e-12
-1.21125e-12
-1.19474e-12
-1.19166e-12
-1.16331e-12
-1.19699e-12
-1.15727e-12
-1.13787e-12
-1.13249e-12
-1.18235e-12
-1.19952e-12
-1.17766e-12
-1.1647e-12
-1.1794e-12
-1.14227e-12
-1.18879e-12
-1.17847e-12
-1.22037e-12
-1.2402e-12
-1.23869e-12
-1.25031e-12
-1.28285e-12
-1.28158e-12
-1.31214e-12
-1.32581e-12
-1.3121e-12
-1.26788e-12
-1.24818e-12
-1.19256e-12
-1.1456e-12
-1.12303e-12
-1.09534e-12
-1.01786e-12
-9.78436e-13
-8.84022e-13
-8.36253e-13
-7.64975e-13
-6.52976e-13
-6.20181e-13
-5.63157e-13
-4.78786e-13
-4.15665e-13
-3.56795e-13
-3.13893e-13
-2.42675e-13
-1.5065e-13
-6.6094e-14
-3.31247e-14
-1.23221e-12
-1.24638e-12
-1.25802e-12
-1.28863e-12
-1.29686e-12
-1.25712e-12
-1.25235e-12
-1.22736e-12
-1.24073e-12
-1.24365e-12
-1.26238e-12
-1.26061e-12
-1.21797e-12
-1.17865e-12
-1.22367e-12
-1.17495e-12
-1.12404e-12
-1.19543e-12
-1.16213e-12
-1.13485e-12
-1.16328e-12
-1.18589e-12
-1.20608e-12
-1.17459e-12
-1.16914e-12
-1.16733e-12
-1.14317e-12
-1.17975e-12
-1.19919e-12
-1.22851e-12
-1.22646e-12
-1.23173e-12
-1.25526e-12
-1.2661e-12
-1.27919e-12
-1.31678e-12
-1.34426e-12
-1.30805e-12
-1.27362e-12
-1.23145e-12
-1.19106e-12
-1.15846e-12
-1.12263e-12
-1.07472e-12
-1.01335e-12
-9.73584e-13
-8.81381e-13
-8.23482e-13
-7.43995e-13
-6.66182e-13
-6.36468e-13
-5.57357e-13
-4.70923e-13
-4.11917e-13
-3.63234e-13
-3.11667e-13
-2.43076e-13
-1.45348e-13
-5.60461e-14
-3.04921e-14
-1.24021e-12
-1.22965e-12
-1.26782e-12
-1.27936e-12
-1.2875e-12
-1.25439e-12
-1.25753e-12
-1.21591e-12
-1.25063e-12
-1.23881e-12
-1.2684e-12
-1.26465e-12
-1.23095e-12
-1.1586e-12
-1.22221e-12
-1.18818e-12
-1.16133e-12
-1.1842e-12
-1.18632e-12
-1.12754e-12
-1.14226e-12
-1.19202e-12
-1.19006e-12
-1.16491e-12
-1.17362e-12
-1.1663e-12
-1.15541e-12
-1.17536e-12
-1.2059e-12
-1.22067e-12
-1.22729e-12
-1.22909e-12
-1.24926e-12
-1.26687e-12
-1.2841e-12
-1.306e-12
-1.33407e-12
-1.31646e-12
-1.25516e-12
-1.23054e-12
-1.20218e-12
-1.16826e-12
-1.12353e-12
-1.04932e-12
-1.01148e-12
-9.63297e-13
-8.79288e-13
-8.17959e-13
-7.42116e-13
-6.73458e-13
-6.33943e-13
-5.5741e-13
-4.78073e-13
-4.22352e-13
-3.63782e-13
-2.98782e-13
-2.31029e-13
-1.44213e-13
-5.78423e-14
-3.05682e-14
-1.24e-12
-1.23018e-12
-1.27032e-12
-1.26759e-12
-1.27733e-12
-1.24192e-12
-1.26427e-12
-1.23566e-12
-1.23428e-12
-1.24627e-12
-1.26933e-12
-1.26596e-12
-1.20963e-12
-1.16749e-12
-1.17772e-12
-1.1429e-12
-1.12359e-12
-1.15655e-12
-1.1858e-12
-1.15237e-12
-1.13334e-12
-1.17379e-12
-1.19527e-12
-1.15204e-12
-1.18327e-12
-1.16465e-12
-1.16037e-12
-1.17265e-12
-1.19408e-12
-1.21413e-12
-1.24134e-12
-1.21818e-12
-1.24884e-12
-1.26624e-12
-1.29352e-12
-1.30143e-12
-1.32665e-12
-1.3097e-12
-1.24826e-12
-1.22352e-12
-1.21877e-12
-1.18239e-12
-1.12426e-12
-1.03526e-12
-1.00817e-12
-9.49842e-13
-8.7818e-13
-8.17638e-13
-7.48257e-13
-6.75768e-13
-6.20097e-13
-5.61844e-13
-4.80468e-13
-4.23456e-13
-3.71545e-13
-2.94681e-13
-2.16206e-13
-1.34852e-13
-6.11999e-14
-2.55777e-14
-1.24921e-12
-1.22088e-12
-1.26616e-12
-1.26232e-12
-1.27172e-12
-1.25149e-12
-1.24963e-12
-1.24237e-12
-1.23443e-12
-1.2491e-12
-1.27446e-12
-1.25051e-12
-1.22823e-12
-1.19352e-12
-1.2151e-12
-1.1564e-12
-1.16923e-12
-1.18949e-12
-1.16829e-12
-1.14416e-12
-1.15007e-12
-1.18303e-12
-1.18755e-12
-1.16228e-12
-1.18339e-12
-1.16634e-12
-1.17305e-12
-1.17113e-12
-1.1869e-12
-1.22161e-12
-1.24525e-12
-1.21898e-12
-1.24083e-12
-1.27269e-12
-1.29865e-12
-1.29102e-12
-1.32197e-12
-1.29583e-12
-1.25835e-12
-1.22688e-12
-1.22056e-12
-1.19482e-12
-1.11975e-12
-1.03959e-12
-9.94153e-13
-9.36634e-13
-8.78292e-13
-8.13397e-13
-7.50631e-13
-6.72736e-13
-6.15388e-13
-5.6476e-13
-4.81295e-13
-4.26205e-13
-3.73773e-13
-2.96155e-13
-2.09451e-13
-1.29943e-13
-6.1578e-14
-2.91468e-14
-1.25167e-12
-1.21134e-12
-1.25097e-12
-1.26616e-12
-1.27391e-12
-1.25458e-12
-1.26505e-12
-1.2307e-12
-1.2406e-12
-1.24708e-12
-1.28213e-12
-1.25323e-12
-1.21288e-12
-1.19699e-12
-1.19945e-12
-1.14538e-12
-1.16249e-12
-1.18271e-12
-1.16422e-12
-1.16288e-12
-1.13956e-12
-1.18749e-12
-1.19169e-12
-1.17071e-12
-1.17876e-12
-1.16696e-12
-1.17636e-12
-1.16359e-12
-1.19487e-12
-1.22032e-12
-1.23793e-12
-1.23894e-12
-1.23616e-12
-1.26121e-12
-1.30367e-12
-1.29086e-12
-1.30672e-12
-1.30724e-12
-1.25465e-12
-1.23087e-12
-1.2232e-12
-1.20389e-12
-1.11279e-12
-1.03741e-12
-9.86987e-13
-9.32019e-13
-8.80575e-13
-8.18424e-13
-7.51788e-13
-6.69863e-13
-6.09956e-13
-5.6288e-13
-4.65809e-13
-4.2203e-13
-3.56444e-13
-2.93705e-13
-2.31706e-13
-1.30605e-13
-5.38923e-14
-2.05364e-14
-1.2615e-12
-1.21938e-12
-1.21874e-12
-1.27137e-12
-1.27761e-12
-1.24453e-12
-1.26408e-12
-1.22634e-12
-1.24117e-12
-1.24767e-12
-1.27976e-12
-1.27378e-12
-1.19903e-12
-1.20276e-12
-1.18164e-12
-1.15648e-12
-1.15713e-12
-1.18068e-12
-1.16646e-12
-1.16042e-12
-1.1417e-12
-1.18505e-12
-1.18329e-12
-1.1689e-12
-1.18764e-12
-1.16345e-12
-1.17592e-12
-1.1632e-12
-1.18831e-12
-1.22838e-12
-1.24248e-12
-1.24888e-12
-1.23863e-12
-1.25978e-12
-1.28861e-12
-1.29467e-12
-1.31153e-12
-1.30423e-12
-1.25682e-12
-1.2273e-12
-1.21662e-12
-1.20326e-12
-1.11431e-12
-1.03986e-12
-9.90118e-13
-9.31831e-13
-8.74341e-13
-8.23836e-13
-7.50895e-13
-6.75475e-13
-6.11672e-13
-5.44393e-13
-4.58527e-13
-4.08363e-13
-3.50986e-13
-2.89937e-13
-2.23858e-13
-1.30321e-13
-5.60729e-14
-1.82607e-14
-1.27024e-12
-1.22082e-12
-1.20839e-12
-1.27223e-12
-1.27464e-12
-1.24678e-12
-1.26248e-12
-1.22403e-12
-1.23873e-12
-1.2538e-12
-1.29978e-12
-1.27295e-12
-1.20578e-12
-1.18516e-12
-1.16815e-12
-1.14977e-12
-1.14828e-12
-1.19857e-12
-1.16251e-12
-1.16365e-12
-1.13232e-12
-1.183e-12
-1.18496e-12
-1.17493e-12
-1.20941e-12
-1.15592e-12
-1.16351e-12
-1.16693e-12
-1.19102e-12
-1.23886e-12
-1.24376e-12
-1.2754e-12
-1.20963e-12
-1.24084e-12
-1.2994e-12
-1.29702e-12
-1.30271e-12
-1.3066e-12
-1.25954e-12
-1.22661e-12
-1.21936e-12
-1.21366e-12
-1.11822e-12
-1.03349e-12
-9.77073e-13
-9.4002e-13
-8.74121e-13
-8.18901e-13
-7.53029e-13
-6.78562e-13
-6.10193e-13
-5.37225e-13
-4.60003e-13
-3.95203e-13
-3.29039e-13
-2.92248e-13
-2.30917e-13
-1.36071e-13
-5.62347e-14
-1.92612e-14
-1.28042e-12
-1.22833e-12
-1.21651e-12
-1.2694e-12
-1.26597e-12
-1.23728e-12
-1.26445e-12
-1.23039e-12
-1.21713e-12
-1.25903e-12
-1.28753e-12
-1.27266e-12
-1.21316e-12
-1.18836e-12
-1.16583e-12
-1.14817e-12
-1.14764e-12
-1.2128e-12
-1.14235e-12
-1.1745e-12
-1.13998e-12
-1.17167e-12
-1.18892e-12
-1.18756e-12
-1.22074e-12
-1.15407e-12
-1.1614e-12
-1.16135e-12
-1.18559e-12
-1.23994e-12
-1.25437e-12
-1.26964e-12
-1.21099e-12
-1.22326e-12
-1.30043e-12
-1.30184e-12
-1.30307e-12
-1.31195e-12
-1.25664e-12
-1.21644e-12
-1.22174e-12
-1.21878e-12
-1.10916e-12
-1.034e-12
-9.71673e-13
-9.34319e-13
-8.89602e-13
-8.18782e-13
-7.57506e-13
-6.81461e-13
-6.09465e-13
-5.26473e-13
-4.62305e-13
-3.93567e-13
-3.23409e-13
-2.86653e-13
-2.35888e-13
-1.47422e-13
-4.6856e-14
-1.71735e-15
-1.24834e-12
-1.23048e-12
-1.22864e-12
-1.23719e-12
-1.25152e-12
-1.30175e-12
-1.26786e-12
-1.25824e-12
-1.26593e-12
-1.24355e-12
-1.21722e-12
-1.22709e-12
-1.22455e-12
-1.19922e-12
-1.18327e-12
-1.20212e-12
-1.17919e-12
-1.14827e-12
-1.15361e-12
-1.16954e-12
-1.20312e-12
-1.17535e-12
-1.16498e-12
-1.16029e-12
-1.17344e-12
-1.17464e-12
-1.18731e-12
-1.19311e-12
-1.19997e-12
-1.20753e-12
-1.23889e-12
-1.23967e-12
-1.25356e-12
-1.28716e-12
-1.2987e-12
-1.32949e-12
-1.33204e-12
-1.2927e-12
-1.25701e-12
-1.21883e-12
-1.16943e-12
-1.16903e-12
-1.15067e-12
-1.09297e-12
-1.05562e-12
-1.0009e-12
-9.29076e-13
-8.48047e-13
-7.79038e-13
-7.11132e-13
-6.4659e-13
-5.55424e-13
-4.84237e-13
-4.1758e-13
-3.5707e-13
-2.79303e-13
-2.31199e-13
-1.62923e-13
-9.45045e-14
-3.61698e-14
-1.2561e-12
-1.22548e-12
-1.23025e-12
-1.24276e-12
-1.25644e-12
-1.29812e-12
-1.27442e-12
-1.24857e-12
-1.26433e-12
-1.23331e-12
-1.2283e-12
-1.23465e-12
-1.22086e-12
-1.19012e-12
-1.18647e-12
-1.19966e-12
-1.17716e-12
-1.15044e-12
-1.15054e-12
-1.17458e-12
-1.20788e-12
-1.1738e-12
-1.16795e-12
-1.15762e-12
-1.16768e-12
-1.175e-12
-1.18112e-12
-1.19388e-12
-1.20454e-12
-1.20524e-12
-1.24069e-12
-1.23537e-12
-1.26271e-12
-1.29333e-12
-1.31002e-12
-1.31772e-12
-1.32953e-12
-1.28989e-12
-1.26215e-12
-1.21534e-12
-1.1649e-12
-1.15899e-12
-1.15698e-12
-1.0944e-12
-1.05075e-12
-1.0072e-12
-9.30419e-13
-8.50857e-13
-7.75104e-13
-7.0467e-13
-6.4159e-13
-5.62637e-13
-4.82175e-13
-4.14616e-13
-3.57979e-13
-2.87235e-13