/*--------------------------------*- C++ -*----------------------------------*\
  =========                 |
  \\      /  F ield         | OpenFOAM: The Open Source CFD Toolbox
   \\    /   O peration     | Website:  https://openfoam.org
    \\  /    A nd           | Version:  13
     \\/     M anipulation  |
\*---------------------------------------------------------------------------*/
FoamFile
{
    format      ascii;
    class       volVectorField;
    location    "9";
    object      U;
}
// * * * * * * * * * * * * * * * * * * * * * * * * * * * * * * * * * * * * * //

dimensions      [0 1 -1 0 0 0 0];

internalField   nonuniform List<vector> 
54636
(
(20 2.13224e-16 1.58013e-16)
(20 -2.71223e-18 -2.81462e-17)
(20 -6.31188e-16 5.51826e-17)
(20 -2.82822e-16 -4.4908e-16)
(20 -2.16241e-16 -4.29048e-16)
(20 -8.15353e-17 -3.23459e-16)
(20 1.07119e-15 -3.54864e-16)
(20 6.45276e-16 8.13209e-16)
(20 7.92279e-16 2.09322e-16)
(20 -4.63988e-16 -2.04016e-16)
(20 -2.16965e-16 2.02674e-16)
(20 -5.46405e-16 -3.53337e-16)
(20 1.44398e-17 4.51796e-16)
(20 -2.49459e-16 1.54458e-16)
(20 -1.11915e-16 -2.70837e-17)
(20 -5.03682e-16 2.50484e-16)
(20 -6.98538e-16 -4.79997e-16)
(20 4.29292e-17 -5.12474e-16)
(20 -2.99139e-16 2.90634e-16)
(20 -7.1311e-16 -2.1493e-16)
(20 -4.4283e-16 2.37447e-16)
(20 1.41417e-16 -5.77287e-16)
(20 2.15531e-17 -1.75855e-16)
(20 4.82063e-16 5.74532e-16)
(20 8.80649e-16 1.1098e-15)
(20 5.52716e-16 9.40706e-16)
(20 -8.21241e-17 2.87766e-16)
(20 1.15435e-16 -5.397e-16)
(20 -1.86943e-16 -5.98873e-16)
(20 1.25819e-16 -2.78045e-16)
(20 1.95103e-16 3.05442e-16)
(20 4.59013e-17 3.16819e-16)
(20 -3.35295e-16 -3.13282e-16)
(20 -2.25247e-16 -5.44227e-16)
(20 4.23126e-19 2.07881e-16)
(20 -2.64875e-16 -3.33532e-16)
(20 -2.68385e-16 -1.47299e-15)
(20 -1.11497e-15 -1.66467e-15)
(20 -4.41151e-16 -9.25838e-16)
(20 -2.34675e-16 -2.42534e-16)
(20 2.63817e-16 7.42232e-16)
(20 7.87075e-18 7.99763e-16)
(20 2.32132e-16 8.55996e-16)
(20 8.38708e-16 9.33638e-16)
(20 4.30883e-16 8.35527e-16)
(20 5.11743e-16 1.05668e-15)
(20 1.69336e-16 1.61366e-16)
(20 8.07187e-16 -4.44864e-16)
(20 1.87881e-16 2.51548e-16)
(20 -2.99313e-16 7.12741e-17)
(20 -5.81254e-16 -1.38149e-16)
(20 2.22708e-16 1.11854e-16)
(20 2.84984e-16 2.63934e-16)
(20 3.90467e-17 4.47544e-16)
(20 -2.29062e-16 3.30661e-16)
(20 4.14074e-16 -1.53547e-16)
(20 6.48965e-16 6.68225e-18)
(20 4.89369e-17 1.82386e-16)
(20 -4.09783e-16 1.85907e-17)
(20 -5.32216e-16 7.26538e-17)
(20 1.28051e-16 3.33342e-16)
(20 -2.28005e-16 2.58946e-16)
(20 -4.53565e-16 2.06288e-16)
(20 2.64361e-16 -2.84496e-16)
(20 5.52264e-16 -2.11268e-17)
(20 3.22094e-16 -2.75369e-17)
(20 1.4026e-15 -4.91114e-16)
(20 8.23896e-16 -9.36822e-17)
(20 3.3424e-16 -5.83472e-16)
(20 -4.65413e-16 -3.5517e-16)
(20 -1.1445e-15 -5.72699e-17)
(20 -8.43222e-16 -1.04612e-16)
(20 7.21329e-16 5.24664e-16)
(20 -1.29737e-16 -1.3298e-16)
(20 -1.4316e-16 -1.39509e-17)
(20 -1.14067e-15 4.01809e-16)
(20 -5.58664e-16 -5.28973e-18)
(20 -8.69363e-17 -4.28449e-16)
(20 -1.13738e-15 -1.80427e-16)
(20 -1.26305e-15 -1.01755e-16)
(20 4.50903e-17 6.07051e-16)
(20 8.39577e-16 -7.76677e-16)
(20 1.23819e-15 4.46761e-17)
(20 1.31448e-15 -7.329e-17)
(20 1.61024e-15 -8.81393e-17)
(20 1.06143e-15 7.15393e-16)
(20 4.36361e-17 1.26956e-16)
(20 2.38553e-16 -6.08822e-19)
(20 -1.07352e-15 -2.66287e-16)
(20 -6.21061e-16 -2.61853e-16)
(20 -4.07312e-16 -1.26032e-16)
(20 -6.23768e-16 -2.66977e-16)
(20 -1.68693e-16 9.48359e-17)
(20 -6.14532e-16 -3.58715e-16)
(20 9.3071e-16 3.10223e-16)
(20 6.28407e-16 -3.99107e-17)
(20 -2.18291e-16 -1.1278e-15)
(20 -1.88703e-15 -5.47026e-16)
(20 -9.79197e-16 -5.77263e-16)
(20 -4.0535e-16 -3.25179e-17)
(20 7.72044e-16 5.28315e-16)
(20 9.73658e-17 3.80175e-16)
(20 -5.22815e-16 2.17196e-16)
(20 4.51138e-16 3.13156e-16)
(20 3.60164e-16 4.93745e-16)
(20 7.06713e-17 6.01201e-16)
(20 -2.85293e-16 6.23798e-17)
(20 7.52546e-16 -4.9222e-16)
(20 6.44465e-16 1.61635e-16)
(20 -8.78127e-16 -2.11954e-16)
(20 -1.12053e-15 -7.56192e-17)
(20 1.42722e-16 -2.82194e-18)
(20 2.90955e-16 1.31173e-16)
(20 9.42162e-17 2.74138e-16)
(20 3.66066e-18 4.20124e-16)
(20 6.30963e-16 -2.06391e-16)
(20 6.53468e-16 -3.26747e-16)
(20 -3.09705e-17 -7.47525e-17)
(20 -3.5759e-17 3.55057e-16)
(20 -4.41351e-16 3.29431e-16)
(20 3.41682e-17 4.2836e-16)
(20 1.6371e-16 5.62216e-16)
(20 2.69974e-16 -1.76746e-16)
(20 -1.81941e-16 -3.64467e-16)
(20 1.34836e-15 -1.75827e-17)
(20 9.45189e-16 1.8783e-16)
(20 6.27579e-16 -1.85596e-16)
(20 9.96596e-16 -7.40529e-17)
(20 1.47684e-16 -5.6863e-16)
(20 -3.31718e-16 -5.46171e-16)
(20 -1.78942e-15 -1.80247e-16)
(20 -9.64471e-16 -1.18338e-16)
(20 5.16499e-16 1.86755e-16)
(20 -9.85119e-17 -3.58193e-17)
(20 -1.72256e-16 2.47292e-16)
(20 -1.09409e-15 7.4921e-16)
(20 1.31316e-16 -2.58538e-17)
(20 5.62717e-16 -2.61467e-17)
(20 -3.82456e-16 2.28162e-16)
(20 -8.72776e-16 3.89115e-16)
(20 7.03636e-16 -1.3501e-16)
(20 5.854e-16 -8.86508e-16)
(20 8.51484e-16 -3.12552e-16)
(20 8.28621e-16 3.44939e-16)
(20 1.31647e-15 -2.84494e-16)
(20 1.21915e-15 4.93747e-16)
(20 1.98587e-16 5.76796e-17)
(20 -1.22481e-16 1.14843e-16)
(20 -1.6119e-15 6.16284e-16)
(20 4.01191e-17 -3.8879e-16)
(20 -4.88069e-16 -1.76723e-16)
(20 -1.19868e-15 -4.20447e-17)
(20 8.1691e-16 3.40671e-16)
(20 8.98591e-17 -3.25123e-16)
(20 1.22754e-15 -5.81608e-17)
(20 8.58791e-16 -2.29507e-16)
(20 -5.64104e-16 -4.81143e-16)
(20 -1.00371e-15 1.39943e-16)
(20 -7.79528e-16 2.37368e-17)
(20 1.61086e-16 3.00646e-16)
(20 4.70017e-16 2.36994e-16)
(20 2.39961e-16 1.00119e-16)
(20 -9.15522e-16 3.64185e-16)
(20 -3.94007e-16 3.35568e-17)
(20 4.28995e-16 -1.44061e-16)
(20 -5.39565e-18 4.1148e-16)
(20 -5.57499e-16 2.83802e-16)
(20 7.04204e-18 -1.68171e-16)
(20 8.62168e-16 -4.44211e-17)
(20 -3.46145e-16 -2.42765e-16)
(20 -1.46579e-16 8.68204e-17)
(20 1.27774e-16 -1.3591e-16)
(20 1.98532e-16 -1.4896e-16)
(20 -8.6536e-17 2.84373e-16)
(20 -2.13297e-16 8.48297e-17)
(20 2.51246e-16 -1.90124e-16)
(20 3.4586e-16 -2.45064e-16)
(20 1.34144e-17 -1.81171e-16)
(20 -1.65701e-17 -1.23988e-17)
(20 -2.14686e-16 8.14598e-17)
(20 -1.29547e-15 1.7792e-16)
(20 -4.78269e-16 1.44961e-17)
(20 -6.92219e-16 -1.03347e-16)
(20 -1.08088e-15 -8.65899e-17)
(20 1.89702e-15 -2.03942e-16)
(20 1.67694e-15 9.02676e-17)
(20 5.44277e-17 -3.78664e-16)
(20 2.22947e-16 -4.08385e-16)
(20 7.56158e-17 -5.9991e-16)
(20 -4.67917e-16 -5.35163e-16)
(20 -8.89308e-16 2.90052e-16)
(20 -5.30528e-16 5.77503e-16)
(20 -3.38181e-16 4.12469e-16)
(20 7.52804e-16 1.63846e-16)
(20 -7.25891e-16 6.95228e-17)
(20 -2.43112e-16 2.45852e-16)
(20 -3.82119e-16 -5.555e-17)
(20 7.3058e-16 9.07955e-17)
(20 5.36689e-16 -2.06916e-16)
(20 3.41236e-17 3.76166e-16)
(20 -1.74896e-16 -2.19734e-16)
(20 -4.02277e-16 -8.91242e-16)
(20 -5.24531e-16 2.53381e-16)
(20 -2.12504e-16 5.14197e-16)
(20 2.96061e-16 -3.45258e-16)
(20 3.82431e-16 -6.19503e-16)
(20 -1.82817e-16 2.53938e-17)
(20 -8.33389e-16 1.31581e-16)
(20 -2.72808e-16 8.48519e-16)
(20 8.31085e-16 -5.1125e-16)
(20 2.13292e-16 2.19487e-16)
(20 -3.46358e-16 -3.26212e-17)
(20 8.29631e-16 -2.84867e-16)
(20 4.35222e-16 -3.9686e-16)
(20 -1.54328e-16 -1.40027e-17)
(20 -2.09169e-16 -2.45757e-16)
(20 -5.47773e-16 -1.3952e-17)
(20 -4.63266e-17 1.11018e-16)
(20 5.52934e-16 1.40675e-16)
(20 2.54982e-16 -2.09253e-16)
(20 -3.4139e-16 1.18103e-16)
(20 1.92432e-16 6.50016e-17)
(20 -1.15865e-15 2.33837e-16)
(20 -1.04454e-15 1.8632e-16)
(20 -3.36569e-17 -3.00783e-18)
(20 -1.94961e-17 3.0518e-16)
(20 -4.37579e-16 3.06222e-17)
(20 5.81785e-16 -6.48551e-16)
(20 1.41536e-15 -2.35467e-16)
(20 -2.53515e-17 -1.78782e-16)
(20 -8.59371e-16 -3.56042e-16)
(20 -2.48427e-16 -3.37073e-16)
(20 7.7748e-16 -4.8322e-17)
(20 -5.61543e-17 4.82152e-16)
(20 -7.518e-16 4.38569e-16)
(20 2.48132e-16 -1.62044e-16)
(20 1.03879e-15 -3.09044e-16)
(20 3.30279e-16 -2.68553e-16)
(20 -5.96855e-16 -1.6502e-16)
(20 -6.60246e-16 -2.9181e-16)
(20 -1.17434e-15 8.40436e-16)
(20 -4.5639e-16 4.17403e-16)
(20 -1.33873e-17 4.92836e-16)
(20 -6.91778e-17 2.63315e-16)
(20 1.04007e-15 -3.87174e-16)
(20 1.17567e-15 -6.52185e-16)
(20 1.63416e-16 -1.97411e-16)
(20 -1.91588e-16 2.27746e-16)
(20 -2.05346e-16 1.56075e-16)
(20 -3.39034e-16 -6.8926e-16)
(20 -2.38677e-16 -2.07271e-16)
(20 -6.20348e-16 4.73269e-16)
(20 -3.87233e-16 2.10164e-16)
(20 2.05267e-16 -3.327e-16)
(20 1.48124e-15 3.18969e-16)
(20 -1.05971e-15 -1.87131e-16)
(20 -4.34677e-16 -8.59503e-17)
(20 4.01243e-16 -1.1736e-16)
(20 -1.13291e-16 2.33247e-16)
(20 3.03895e-16 7.81552e-16)
(20 1.86882e-16 -8.48969e-17)
(20 -1.40169e-16 -1.05126e-15)
(20 -8.97419e-17 6.8003e-17)
(20 2.76681e-16 3.77222e-16)
(20 7.20475e-16 1.57742e-16)
(20 1.26211e-16 -3.83269e-16)
(20 1.26531e-16 -1.63062e-16)
(20 -7.34803e-16 1.98607e-16)
(20 5.7386e-16 7.3111e-16)
(20 4.48842e-16 -1.05139e-16)
(20 2.04087e-16 -1.84187e-16)
(20 -3.71595e-16 -6.09287e-16)
(20 -8.89582e-17 -1.3378e-16)
(20 5.80552e-17 -1.73478e-16)
(20 -4.62644e-16 -9.47131e-17)
(20 -3.88315e-16 -7.37691e-17)
(20 -9.95887e-16 -1.06053e-16)
(20 -3.21703e-16 1.45534e-16)
(20 3.26544e-16 -1.06319e-16)
(20 -6.16965e-18 1.08861e-16)
(20 2.9633e-16 5.75475e-16)
(20 4.82982e-16 2.27422e-16)
(20 -3.22321e-16 4.55443e-16)
(20 -4.47684e-16 3.85914e-16)
(20 -7.36407e-16 3.09531e-16)
(20 -3.16278e-16 3.52046e-16)
(20 -3.27762e-16 2.30482e-16)
(20 4.94981e-16 -1.11988e-15)
(20 8.58783e-16 -1.17137e-15)
(20 -2.84524e-16 -9.10437e-17)
(20 -1.32945e-15 8.91722e-16)
(20 -1.22718e-16 3.25822e-16)
(20 3.83828e-16 -3.22592e-16)
(20 -2.03987e-16 -1.75844e-16)
(20 1.16105e-16 -2.33791e-17)
(20 9.72885e-16 -1.77058e-16)
(20 6.77755e-16 -5.06452e-16)
(20 -3.00405e-16 -2.61337e-16)
(20 -1.39467e-16 -2.92036e-17)
(20 -2.08965e-16 1.30005e-16)
(20 -5.51071e-16 1.35399e-16)
(20 7.11421e-16 -2.25134e-16)
(20 1.13682e-15 2.94493e-16)
(20 1.49616e-15 1.37983e-16)
(20 5.09688e-16 9.17346e-17)
(20 -7.73908e-16 -7.17312e-16)
(20 -8.21431e-16 -5.94969e-16)
(20 1.43548e-16 -6.8698e-17)
(20 4.21392e-17 -6.5157e-17)
(20 -5.28796e-16 -2.6114e-16)
(20 6.08236e-16 2.15706e-16)
(20 -1.06971e-16 5.37242e-16)
(20 -3.50875e-16 4.59584e-16)
(20 9.33436e-16 -3.48434e-16)
(20 2.3329e-16 1.67685e-16)
(20 -3.08623e-16 8.55864e-16)
(20 -1.89105e-16 -2.18597e-16)
(20 -9.90226e-16 -1.86484e-16)
(20 -5.20833e-17 1.82328e-16)
(20 4.65848e-16 7.88976e-16)
(20 -1.99118e-15 -2.45216e-16)
(20 -6.29188e-16 -3.01258e-16)
(20 7.01029e-16 1.23169e-16)
(20 1.1477e-15 2.12552e-16)
(20 8.20601e-16 -4.63849e-16)
(20 6.03257e-16 -5.34006e-16)
(20 -1.89284e-17 -1.22009e-16)
(20 -2.07339e-16 3.86959e-16)
(20 6.34046e-16 6.5549e-16)
(20 6.02037e-16 -3.40753e-16)
(20 -4.29071e-16 -7.74562e-17)
(20 -8.85183e-16 9.95925e-17)
(20 -7.21203e-16 -5.66233e-16)
(20 2.14797e-16 -2.19613e-16)
(20 6.15928e-16 5.79794e-17)
(20 9.32547e-17 7.77851e-17)
(20 -9.25297e-16 1.5373e-16)
(20 -1.5233e-16 9.58948e-16)
(20 -7.01592e-16 1.51932e-17)
(20 -4.59653e-16 -2.68122e-16)
(20 5.95437e-16 -1.73322e-17)
(20 7.2421e-16 1.03202e-16)
(20 7.4053e-16 -4.42124e-16)
(20 8.79387e-17 -2.69056e-18)
(20 -8.8484e-16 3.87288e-16)
(20 -4.36816e-17 3.15617e-16)
(20 2.90582e-16 2.33002e-16)
(20 -2.33744e-16 -8.13113e-16)
(20 -9.79905e-17 -7.17367e-16)
(20 3.01121e-16 1.98254e-16)
(20 3.49567e-16 7.74541e-16)
(20 2.75613e-16 2.8561e-16)
(20 -4.5703e-16 1.22129e-17)
(20 -1.11235e-15 -1.56564e-16)
(20 -5.30412e-16 -6.39574e-16)
(20 5.29767e-16 -7.11035e-16)
(20 1.73524e-17 -2.71622e-16)
(20 -2.1e-16 3.60889e-16)
(20 2.80529e-16 1.106e-16)
(20 1.0281e-15 -1.12504e-16)
(20 2.29629e-16 4.14129e-16)
(20 8.66785e-16 -3.19785e-18)
(20 1.05793e-15 2.41378e-16)
(20 1.44403e-15 7.77179e-17)
(20 3.18986e-16 -3.91202e-16)
(20 -8.57572e-16 -1.78635e-16)
(20 -1.88111e-15 2.45747e-18)
(20 -3.47306e-16 -3.77974e-16)
(20 -6.30765e-16 -1.49265e-16)
(20 -1.06115e-15 -2.8794e-16)
(20 2.75887e-16 -5.07098e-16)
(20 3.31372e-16 2.33018e-16)
(20 1.15705e-16 -1.55476e-16)
(20 -6.31956e-16 -1.20078e-16)
(20 1.26489e-16 -1.60326e-16)
(20 5.5038e-16 -2.69106e-17)
(20 2.61284e-16 -1.278e-16)
(20 -1.50968e-15 -3.49329e-16)
(20 4.18597e-16 2.97837e-16)
(20 -9.04565e-16 2.2293e-16)
(20 7.48322e-16 3.0008e-16)
(20 -6.67555e-16 3.75453e-16)
(20 4.10878e-16 -3.85025e-16)
(20 2.51203e-16 -2.45123e-16)
(20 -5.42467e-16 -4.47384e-16)
(20 1.79374e-16 -2.91345e-16)
(20 -5.0013e-17 2.71349e-16)
(20 3.34728e-16 5.84771e-16)
(20 3.46403e-17 1.10914e-16)
(20 3.22595e-16 -6.60461e-16)
(20 1.90173e-16 3.90736e-16)
(20 -1.81402e-16 1.15735e-16)
(20 -1.25941e-15 -8.08872e-16)
(20 7.52706e-17 1.17352e-16)
(20 3.48444e-16 1.61533e-16)
(20 -3.04651e-17 6.60979e-17)
(20 -9.71086e-17 6.42008e-16)
(20 4.22682e-16 7.24157e-16)
(20 -7.56216e-16 2.48463e-16)
(20 -8.22479e-16 -2.34338e-16)
(20 5.86901e-16 2.86853e-18)
(20 7.51046e-16 -2.34653e-16)
(20 7.53506e-16 -7.28357e-16)
(20 -2.28731e-16 1.10604e-16)
(20 -1.55537e-15 3.99374e-16)
(20 -8.21456e-16 6.54899e-17)
(20 7.86916e-16 -2.0991e-16)
(20 5.65886e-16 -7.62623e-16)
(20 8.83799e-16 -4.57579e-16)
(20 1.14279e-15 7.72368e-16)
(20 1.15054e-15 6.12409e-16)
(20 3.0574e-16 2.46269e-16)
(20 -5.83251e-16 9.94706e-17)
(20 -1.15364e-15 8.56264e-17)
(20 -1.97787e-15 -9.9977e-17)
(20 -1.57581e-15 -5.63142e-16)
(20 6.85926e-17 -3.96734e-16)
(20 9.00741e-16 1.40516e-16)
(20 3.73161e-17 -1.27017e-16)
(20 6.23666e-16 -5.42229e-16)
(20 1.27031e-15 -2.39063e-17)
(20 3.68565e-16 3.17113e-17)
(20 3.62926e-16 -1.26848e-16)
(20 5.27509e-16 -2.11275e-16)
(20 -2.24183e-16 -1.31874e-16)
(20 1.01693e-16 -2.40657e-16)
(20 -5.14617e-17 3.77452e-16)
(20 -2.08421e-16 -2.36452e-17)
(20 -1.26049e-15 3.87826e-17)
(20 -1.11911e-15 1.71176e-17)
(20 1.263e-16 -5.92244e-17)
(20 -1.09773e-16 1.62673e-16)
(20 9.86101e-16 -4.01386e-16)
(20 -2.41486e-16 6.63487e-16)
(20 8.22581e-16 -1.30852e-16)
(20 4.32844e-16 2.14043e-16)
(20 -2.64249e-16 -2.88681e-16)
(20 3.64435e-16 -5.08237e-16)
(20 -4.07818e-16 -1.00001e-16)
(20 -1.4009e-15 4.91724e-18)
(20 -2.2938e-16 5.71113e-16)
(20 -3.12284e-16 -8.13931e-17)
(20 -2.20985e-16 -4.62111e-16)
(20 -8.90777e-16 1.65155e-16)
(20 -5.26729e-16 -5.28661e-16)
(20 3.02112e-16 -5.69312e-16)
(20 -3.49441e-16 -1.26257e-16)
(20 2.58341e-16 2.90278e-16)
(20 4.26049e-17 3.32418e-16)
(20 3.7415e-17 -3.38431e-16)
(20 1.10791e-15 2.6754e-16)
(20 8.36938e-16 1.52374e-16)
(20 -2.73013e-16 7.17846e-17)
(20 -3.56705e-17 1.73069e-16)
(20 -7.09721e-17 -3.03113e-16)
(20 6.74373e-17 -1.61716e-16)
(20 1.50472e-16 5.87336e-16)
(20 4.28175e-16 6.46132e-16)
(20 4.43376e-16 6.42267e-16)
(20 -9.06954e-17 -5.15881e-16)
(20 -3.35089e-16 -4.96982e-16)
(20 -4.6736e-16 -7.04504e-16)
(20 2.77759e-16 -7.92082e-16)
(20 -6.74891e-16 6.72245e-17)
(20 -1.22148e-15 7.60178e-16)
(20 -3.4675e-16 4.98905e-16)
(20 2.66099e-17 1.12082e-16)
(20 4.64824e-16 -3.49313e-16)
(20 9.23003e-16 -1.88032e-16)
(20 8.66885e-16 5.54201e-16)
(20 7.86725e-16 2.89703e-16)
(20 -1.89605e-17 -1.13639e-16)
(20 -4.2603e-17 -1.59387e-16)
(20 -3.30701e-16 5.02904e-19)
(20 -1.21318e-15 2.38262e-16)
(20 -1.28063e-15 -2.97704e-16)
(20 -3.39124e-16 -4.52513e-16)
(20 6.76646e-16 -1.74001e-17)
(20 -3.86541e-16 3.13825e-16)
(20 -9.01539e-16 -7.09241e-17)
(20 1.83187e-16 2.41462e-16)
(20 -4.24295e-16 -1.9172e-16)
(20 -5.22774e-16 -2.67099e-16)
(20 -1.7018e-16 -2.01763e-16)
(20 9.58892e-16 5.07498e-16)
(20 9.13958e-16 -2.74206e-16)
(20 1.00092e-15 2.32688e-16)
(20 -2.45034e-16 3.74166e-17)
(20 -3.3562e-16 -5.03429e-16)
(20 -7.23051e-16 9.1988e-17)
(20 3.10018e-16 1.39701e-16)
(20 5.38462e-16 9.05937e-17)
(20 -1.40374e-15 -3.24589e-16)
(20 5.10798e-17 -9.37526e-17)
(20 -1.43478e-16 2.768e-16)
(20 3.12155e-16 -9.12678e-17)
(20 -2.00395e-16 6.9497e-17)
(20 1.35569e-15 1.79352e-16)
(20 -2.61362e-16 1.17135e-16)
(20 1.26586e-15 -9.70932e-18)
(20 -9.00063e-16 2.43322e-16)
(20 -4.64975e-16 2.38448e-16)
(20 -2.28828e-16 -1.25433e-16)
(20 1.80438e-16 1.1289e-16)
(20 -2.77277e-16 -3.88542e-16)
(20 -3.93898e-16 -1.74056e-17)
(20 -1.34862e-15 -2.24548e-17)
(20 -2.30333e-16 6.81439e-17)
(20 -8.20159e-17 6.85382e-17)
(20 4.71952e-16 -3.4202e-16)
(20 1.0524e-15 -6.51597e-17)
(20 1.4055e-15 -9.44081e-17)
(20 1.20166e-15 -1.97582e-17)
(20 1.01113e-16 1.27195e-16)
(20 -7.43499e-16 2.38801e-17)
(20 -8.79557e-17 -3.90369e-17)
(20 -5.54913e-16 1.53015e-16)
(20 4.37591e-16 5.48672e-16)
(20 -4.74114e-18 -4.0432e-16)
(20 5.00452e-16 -1.38879e-16)
(20 -4.20049e-16 1.46787e-16)
(20 -1.62058e-15 -3.36112e-16)
(20 -1.31647e-15 -7.7566e-16)
(20 -6.46463e-16 2.51699e-16)
(20 9.49834e-16 5.15086e-16)
(20 1.3129e-15 6.26888e-17)
(20 -4.21226e-16 -1.38457e-16)
(20 -4.75163e-16 -5.54403e-16)
(20 -2.56462e-16 -4.37788e-16)
(20 -2.09365e-16 -6.6151e-17)
(20 7.79824e-17 2.36147e-16)
(20 -2.45073e-17 2.06707e-16)
(20 7.93801e-17 3.32805e-16)
(20 4.43359e-16 5.01248e-16)
(20 2.86899e-16 3.17319e-16)
(20 -6.06405e-16 -2.75713e-16)
(20 -7.99915e-16 -6.82943e-16)
(20 -4.56083e-16 -8.41646e-17)
(20 -9.60286e-16 1.74533e-16)
(20 -1.26173e-15 2.91896e-16)
(20 4.52841e-16 4.47938e-16)
(20 -4.75253e-16 2.43386e-16)
(20 -4.99465e-16 1.78214e-18)
(20 -6.33459e-16 -3.60617e-16)
(20 1.48811e-15 -2.0875e-16)
(20 1.36683e-15 2.02336e-16)
(20 8.84592e-16 -7.05432e-17)
(20 -4.2377e-16 -4.27284e-16)
(20 -1.12908e-15 -5.74291e-16)
(20 -1.59616e-15 5.93015e-16)
(20 -9.07087e-16 2.47212e-16)
(20 1.21071e-15 -2.73943e-16)
(20 9.41184e-17 5.71043e-16)
(20 -1.91678e-15 1.55803e-16)
(20 2.23938e-16 1.91429e-16)
(20 1.70153e-16 3.00757e-16)
(20 3.93231e-16 -2.21961e-16)
(20 -1.47208e-16 -2.80022e-16)
(20 1.14858e-15 1.84462e-16)
(20 -2.91664e-16 -1.46801e-16)
(20 -1.14007e-16 1.12523e-16)
(20 -1.65791e-16 -5.5003e-16)
(20 2.05479e-16 -2.8092e-16)
(20 2.90007e-16 4.43117e-17)
(20 -5.57487e-16 -2.84708e-17)
(20 -7.45932e-16 2.16837e-16)
(20 -9.75781e-16 5.76056e-17)
(20 -4.19934e-16 2.82382e-16)
(20 2.32183e-16 4.51793e-16)
(20 1.64471e-15 -3.95677e-16)
(20 1.01889e-15 -6.46427e-17)
(20 9.37809e-16 4.10511e-16)
(20 9.09341e-16 -4.9807e-16)
(20 -4.73818e-16 -3.14082e-16)
(20 -8.83198e-16 3.04412e-16)
(20 -4.91184e-16 -9.98126e-17)
(20 -7.59827e-16 5.93489e-16)
(20 2.91361e-16 3.03153e-16)
(20 -3.62484e-16 -2.08879e-17)
(20 -1.95399e-16 -2.58623e-16)
(20 -5.74508e-17 -3.43367e-16)
(20 -6.41819e-16 1.92602e-16)
(20 -5.49457e-16 -4.53694e-16)
(20 2.633e-16 7.53659e-16)
(20 1.38507e-15 3.05433e-16)
(20 1.287e-15 -1.18493e-16)
(20 -3.23017e-17 4.67053e-17)
(20 -3.46229e-16 -2.20595e-16)
(20 -1.20106e-15 -2.0826e-16)
(20 -5.2548e-16 1.04113e-16)
(20 5.82777e-16 2.12645e-16)
(20 5.35401e-16 1.73277e-16)
(20 2.05093e-16 2.36812e-16)
(20 6.79185e-16 2.11397e-16)
(20 8.68773e-16 4.31018e-17)
(20 -6.52063e-16 -2.92326e-17)
(20 -1.14805e-15 -3.11273e-16)
(20 -1.03875e-15 3.7357e-16)
(20 -1.34204e-15 1.11028e-16)
(20 -9.13095e-16 -5.63137e-18)
(20 6.91124e-16 1.78511e-16)
(20 -2.4805e-16 4.02755e-16)
(20 1.16344e-16 -2.57058e-16)
(20 -3.84193e-16 1.90715e-16)
(20 6.79182e-16 -5.92132e-16)
(20 4.17665e-16 -2.93427e-16)
(20 9.35948e-16 -2.05168e-16)
(20 -2.64058e-16 -3.82647e-16)
(20 -1.26634e-15 -9.86165e-17)
(20 -1.0345e-15 8.43758e-16)
(20 -1.07718e-15 7.31232e-17)
(20 8.09148e-16 -3.01408e-16)
(20 6.89269e-16 -1.92487e-16)
(20 -7.53065e-16 -3.77508e-16)
(20 5.62186e-16 1.04566e-16)
(20 -1.2458e-15 6.15385e-16)
(20 3.03363e-16 -2.29212e-17)
(20 1.09251e-15 1.07695e-16)
(20 -3.72289e-16 2.17169e-16)
(20 2.83229e-16 -1.49087e-16)
(20 4.70948e-17 -1.32612e-17)
(20 -4.00937e-16 -3.81671e-16)
(20 -1.77504e-16 2.24329e-16)
(20 -9.63505e-16 3.72194e-16)
(20 -4.37872e-16 4.45985e-16)
(20 -5.84811e-16 8.8835e-17)
(20 1.83086e-16 -9.98709e-17)
(20 -1.26836e-16 -5.82699e-17)
(20 1.3923e-15 3.06789e-16)
(20 1.30262e-15 -3.88501e-16)
(20 1.15592e-15 -8.53069e-17)
(20 1.09661e-15 -8.70881e-17)
(20 6.98533e-16 -1.78016e-16)
(20 -9.23386e-16 8.09333e-17)
(20 -9.28307e-16 1.03068e-16)
(20 -1.2987e-15 -2.16839e-16)
(20 -6.67083e-17 9.93052e-16)
(20 2.96799e-16 -1.82187e-16)
(20 -1.10539e-16 -1.10927e-16)
(20 -1.71856e-15 -3.05395e-17)
(20 -7.8025e-16 -3.59031e-16)
(20 1.49713e-15 2.07131e-16)
(20 1.13962e-15 -4.74514e-16)
(20 4.40787e-16 1.13731e-16)
(20 4.72544e-16 1.62467e-16)
(20 -2.12144e-16 7.81009e-18)
(20 -3.09681e-16 1.88177e-16)
(20 -1.56166e-16 -3.88432e-16)
(20 -3.42913e-16 -3.01882e-16)
(20 7.69035e-16 2.82229e-16)
(20 6.16432e-16 3.832e-16)
(20 3.18913e-16 -4.32771e-17)
(20 3.77307e-16 -2.23e-17)
(20 7.78467e-16 -2.64699e-16)
(20 9.68822e-16 -2.15814e-16)
(20 -7.90636e-16 8.17737e-17)
(20 -1.02252e-15 -1.36161e-16)
(20 4.7282e-16 6.41414e-16)
(20 -4.12245e-16 1.92919e-16)
(20 -7.96029e-16 -6.97569e-17)
(20 8.40644e-17 5.53451e-16)
(20 -4.75208e-16 2.62655e-16)
(20 5.37302e-16 -1.42643e-16)
(20 2.50446e-16 -1.21444e-17)
(20 -9.49954e-16 -6.30939e-16)
(20 -4.64963e-16 -1.46399e-16)
(20 3.91573e-16 -3.27313e-16)
(20 5.47196e-17 -2.99856e-16)
(20 -5.58082e-16 1.52962e-16)
(20 -1.98097e-16 3.18284e-16)
(20 -5.04395e-16 2.88145e-17)
(20 3.59224e-16 -6.67223e-16)
(20 -1.96815e-16 8.16416e-17)
(20 -1.04703e-17 -3.9207e-16)
(20 -3.29668e-17 -1.50542e-16)
(20 -7.60788e-16 3.35464e-16)
(20 6.27341e-17 -3.3622e-17)
(20 1.42286e-15 -2.78006e-16)
(20 1.10274e-15 4.28619e-16)
(20 4.38655e-17 -3.30816e-16)
(20 4.57049e-16 -4.22722e-16)
(20 9.02684e-17 -2.98575e-16)
(20 -6.84902e-17 -1.21464e-17)
(20 -8.08171e-16 5.5299e-16)
(20 -1.13327e-16 2.04713e-16)
(20 -2.62595e-16 9.85987e-18)
(20 1.04966e-15 3.31297e-17)
(20 3.08179e-16 -1.17024e-16)
(20 6.78547e-16 4.17122e-17)
(20 -4.74461e-16 -3.67976e-16)
(20 1.5636e-16 -3.53462e-16)
(20 8.18139e-16 4.9338e-17)
(20 8.66903e-16 9.97454e-17)
(20 7.01541e-16 1.2493e-16)
(20 2.75887e-16 4.6995e-16)
(20 -1.38897e-15 2.32163e-16)
(20 -1.41603e-16 3.29767e-16)
(20 -8.3e-16 2.93244e-16)
(20 -1.04548e-15 1.39064e-16)
(20 -1.46947e-15 3.60319e-16)
(20 1.51589e-16 -3.48563e-16)
(20 1.69307e-15 -2.31445e-16)
(20 7.97162e-16 -2.09982e-16)
(20 -7.97397e-16 -1.1099e-16)
(20 -3.90548e-16 1.13797e-19)
(20 1.96046e-16 9.8346e-17)
(20 6.83533e-16 4.54248e-16)
(20 -5.42145e-16 -3.12751e-16)
(20 -4.71992e-16 -3.8948e-16)
(20 9.38941e-16 2.09763e-18)
(20 1.98041e-16 3.84097e-16)
(20 2.79231e-16 4.09375e-16)
(20 5.16471e-16 -1.26248e-16)
(20 2.74187e-16 -4.16968e-16)
(20 4.62335e-16 -3.95858e-16)
(20 -2.72804e-16 6.17107e-17)
(20 -1.31069e-16 -1.43935e-16)
(20 3.81029e-16 -3.44477e-16)
(20 9.17246e-18 1.16614e-16)
(20 -7.39524e-16 4.90133e-16)
(20 5.46733e-16 3.77675e-16)
(20 7.15215e-17 5.22658e-16)
(20 2.0494e-16 -2.32265e-17)
(20 -2.04595e-16 -2.66492e-16)
(20 -1.54456e-15 -4.18348e-16)
(20 -5.58659e-16 -4.99326e-16)
(20 -4.13077e-16 -5.83109e-17)
(20 8.61626e-17 4.10635e-16)
(20 -5.12165e-16 9.32332e-17)
(20 1.0212e-16 -4.32637e-17)
(20 -8.64645e-17 -2.90752e-17)
(20 -9.18923e-16 -8.38714e-16)
(20 -1.36146e-16 8.87234e-17)
(20 8.63524e-16 -4.67589e-16)
(20 1.06486e-15 -4.14212e-17)
(20 9.59195e-16 -4.82153e-16)
(20 -9.45533e-16 9.17475e-17)
(20 4.43322e-16 6.94905e-18)
(20 -6.30843e-16 1.59278e-16)
(20 2.92417e-16 4.41776e-16)
(20 5.61497e-16 -1.59706e-17)
(20 -6.82945e-16 1.00917e-16)
(20 -1.71718e-16 5.66439e-16)
(20 -2.76414e-16 1.11754e-16)
(20 -7.96962e-16 2.38136e-16)
(20 -8.23914e-16 1.19519e-16)
(20 6.54278e-16 -3.09311e-16)
(20 4.40353e-16 7.11439e-18)
(20 7.7956e-17 -2.98573e-16)
(20 -4.35589e-16 -3.98616e-16)
(20 1.04655e-17 2.60708e-16)
(20 8.61396e-16 -4.12735e-16)
(20 1.46342e-16 -2.39915e-16)
(20 3.00367e-17 -4.9627e-16)
(20 9.72091e-16 2.22348e-17)
(20 3.88569e-16 8.88689e-16)
(20 5.16161e-16 5.69212e-16)
(20 -6.78683e-16 6.07636e-16)
(20 -5.98726e-16 2.86923e-16)
(20 -6.16391e-16 3.55076e-16)
(20 1.55196e-16 -2.16157e-16)
(20 3.50359e-16 -5.09895e-16)
(20 -7.08141e-16 -2.79711e-16)
(20 -1.02527e-15 1.94085e-16)
(20 -5.14982e-16 6.19197e-16)
(20 -6.47515e-16 -2.88876e-16)
(20 8.67095e-17 -7.73833e-16)
(20 -6.08689e-16 -4.79376e-16)
(20 -3.58792e-16 1.30457e-16)
(20 3.71191e-16 1.12239e-16)
(20 8.13815e-17 5.65159e-17)
(20 2.94032e-16 -1.34025e-16)
(20 2.90865e-16 -1.11612e-16)
(20 4.15073e-16 1.00527e-16)
(20 3.78398e-16 5.99296e-17)
(20 6.66716e-16 -3.37616e-17)
(20 1.05102e-16 -5.62097e-16)
(20 -1.34132e-15 -4.1149e-16)
(20 -6.26535e-16 9.77831e-17)
(20 -6.13747e-16 3.01684e-16)
(20 1.07522e-15 4.86415e-16)
(20 9.83134e-16 4.03461e-16)
(20 1.38337e-16 -1.53573e-16)
(20 1.53228e-16 6.01149e-17)
(20 -4.29103e-16 -5.47583e-19)
(20 -1.12808e-15 -4.54257e-16)
(20 -2.39017e-16 -4.7241e-16)
(20 2.36873e-16 3.02889e-16)
(20 -2.59667e-16 -1.03652e-17)
(20 -2.64949e-16 -1.98448e-16)
(20 -6.92772e-16 2.6393e-16)
(20 -4.52434e-16 -4.7626e-16)
(20 1.07378e-16 -9.71476e-17)
(20 9.2596e-16 -4.22492e-16)
(20 4.948e-16 4.46683e-16)
(20 5.7989e-16 6.00524e-17)
(20 2.59456e-16 3.23423e-16)
(20 -3.56448e-16 -8.58527e-17)
(20 8.67365e-16 1.58254e-16)
(20 1.71379e-15 -3.75175e-16)
(20 5.41193e-16 5.13197e-16)
(20 -1.03742e-15 1.9082e-16)
(20 3.00899e-16 -1.8482e-17)
(20 4.25454e-16 2.15632e-16)
(20 7.85919e-17 8.67449e-16)
(20 -1.26121e-16 5.5423e-16)
(20 -2.82018e-16 1.58077e-16)
(20 3.08146e-16 3.48317e-17)
(20 -1.58022e-16 -3.69749e-16)
(20 2.17058e-16 -3.87422e-16)
(20 3.16949e-16 5.22955e-18)
(20 7.00986e-16 -7.21712e-16)
(20 -8.61544e-16 -1.20428e-16)
(20 -1.03973e-15 1.73288e-16)
(20 4.5427e-16 3.08194e-16)
(20 1.35376e-15 3.19796e-16)
(20 8.01732e-16 1.9701e-16)
(20 6.84832e-16 3.21488e-16)
(20 -6.70763e-16 4.54597e-16)
(20 -4.92357e-16 4.12843e-16)
(20 -4.51032e-16 -3.26198e-16)
(20 -1.49702e-16 4.64936e-18)
(20 -4.11878e-16 3.50171e-16)
(20 3.08064e-16 3.34661e-16)
(20 4.92408e-18 3.5824e-16)
(20 -1.6449e-15 -9.97834e-17)
(20 -1.70191e-15 -2.18402e-16)
(20 -1.19424e-15 -4.916e-16)
(20 1.22488e-16 -2.66344e-16)
(20 5.5573e-16 -1.5619e-16)
(20 5.62162e-16 1.78557e-16)
(20 4.869e-16 3.46496e-16)
(20 4.21491e-16 -1.94423e-18)
(20 6.29328e-16 -2.26531e-16)
(20 5.59559e-17 -8.56586e-17)
(20 -1.31613e-16 3.07224e-18)
(20 1.02491e-16 -4.9989e-16)
(20 -4.79522e-16 1.43633e-16)
(20 -5.24462e-16 1.74167e-16)
(20 -6.94557e-16 2.59604e-16)
(20 7.70522e-16 4.65424e-17)
(20 1.90883e-15 -1.25438e-19)
(20 1.64807e-16 -5.3397e-16)
(20 5.80541e-16 -1.48117e-16)
(20 -1.10019e-16 -2.59168e-16)
(20 -1.25648e-15 4.44211e-16)
(20 3.07764e-17 -1.16436e-17)
(20 3.04972e-16 -6.77238e-17)
(20 -8.9532e-16 1.16158e-16)
(20 -6.52243e-16 -3.00996e-16)
(20 -8.50552e-16 3.7165e-16)
(20 8.58755e-17 -9.76924e-16)
(20 -6.52906e-16 -6.62245e-16)
(20 2.98955e-16 -1.13725e-16)
(20 -6.3626e-16 5.18581e-16)
(20 1.83955e-16 4.00973e-16)
(20 -2.40876e-16 2.16603e-16)
(20 8.48693e-16 -9.97329e-16)
(20 -2.39243e-17 -8.53134e-16)
(20 6.83871e-16 -1.55548e-17)
(20 -1.01365e-15 4.55188e-17)
(20 2.42362e-16 1.26814e-17)
(20 1.98279e-16 -2.68228e-16)
(20 2.24579e-16 2.13469e-16)
(20 1.0248e-15 3.63211e-16)
(20 8.52438e-16 1.13197e-16)
(20 2.98941e-16 3.97459e-16)
(20 -4.93224e-17 -3.14053e-16)
(20 -1.50396e-16 1.60567e-16)
(20 4.58735e-16 -3.63684e-17)
(20 2.49215e-16 7.42091e-17)
(20 6.65637e-17 -6.93529e-16)
(20 3.53016e-16 7.37402e-17)
(20 -8.43578e-16 1.86821e-16)
(20 6.44069e-17 8.91148e-17)
(20 1.25795e-15 3.03016e-18)
(20 7.30283e-16 7.14423e-17)
(20 5.61642e-17 -4.50696e-17)
(20 -5.65696e-16 5.25143e-16)
(20 -3.88483e-16 3.78644e-16)
(20 -4.35145e-16 1.22113e-16)
(20 4.70266e-16 3.68336e-16)
(20 8.5937e-16 2.50295e-16)
(20 3.60041e-16 4.98692e-17)
(20 -1.66869e-16 -1.45644e-17)
(20 -6.85328e-16 5.96293e-17)
(20 -1.08816e-15 -1.23015e-16)
(20 -9.32306e-16 -2.32783e-16)
(20 -5.00648e-16 -3.07113e-16)
(20 -9.12543e-17 -3.46084e-16)
(20 6.83231e-16 -1.12579e-16)
(20 5.72742e-16 1.5428e-16)
(20 5.63011e-16 1.01824e-17)
(20 4.58984e-16 2.83462e-16)
(20 -3.23875e-16 -2.17759e-16)
(20 -5.80191e-16 -1.70225e-16)
(20 -1.89891e-16 -1.13328e-16)
(20 -5.15424e-17 3.10881e-16)
(20 -2.67865e-16 3.12852e-16)
(20 -9.04333e-16 1.20806e-16)
(20 9.37029e-16 3.09885e-16)
(20 1.91671e-15 8.91853e-17)
(20 -7.6567e-16 -6.30112e-16)
(20 -5.41111e-16 -2.37813e-16)
(20 -8.07708e-16 6.61835e-17)
(20 -6.39859e-16 2.27141e-16)
(20 2.74685e-17 3.37391e-16)
(20 -6.21387e-17 -3.06267e-16)
(20 -4.72697e-16 3.82456e-16)
(20 -7.72141e-16 -3.16953e-16)
(20 -9.47619e-17 -3.34114e-17)
(20 -1.24809e-16 -4.91064e-16)
(20 -3.08244e-16 -4.18718e-16)
(20 5.86293e-16 2.74828e-16)
(20 -6.78516e-16 5.94945e-16)
(20 -3.63016e-16 6.62481e-16)
(20 -8.13311e-16 2.17658e-16)
(20 -1.25841e-15 -1.09507e-15)
(20 -6.3899e-16 -6.19751e-16)
(20 5.40647e-16 2.56165e-16)
(20 2.91446e-16 4.87139e-16)
(20 7.86346e-16 -2.41244e-16)
(20 3.34082e-16 -1.01713e-16)
(20 4.51513e-17 4.44026e-16)
(20 1.12482e-15 5.04879e-16)
(20 2.486e-16 -9.44945e-18)
(20 3.55539e-16 -4.45836e-17)
(20 -1.02936e-17 -5.88255e-16)
(20 6.63952e-17 -4.67128e-16)
(20 9.26504e-16 -2.22874e-16)
(20 3.67421e-16 7.27428e-17)
(20 9.21799e-16 3.47858e-16)
(20 8.80129e-16 -8.26582e-17)
(20 -9.36836e-16 6.81022e-16)
(20 -1.89175e-16 -1.60187e-16)
(20 9.65089e-16 -2.40453e-16)
(20 8.70333e-16 1.78534e-18)
(20 -8.83747e-16 2.3539e-16)
(20 -9.22999e-16 2.41943e-16)
(20 -3.38848e-16 2.26356e-16)
(20 3.09036e-17 1.67246e-18)
(20 9.98768e-16 -7.97467e-17)
(20 8.14621e-16 2.46915e-17)
(20 -2.9298e-16 1.77272e-16)
(20 -1.19763e-15 -4.51436e-17)
(20 -6.02119e-16 -2.05047e-16)
(20 -1.07505e-15 -2.64852e-16)
(20 -7.73041e-16 -2.18182e-16)
(20 1.80892e-16 -1.07231e-16)
(20 6.02196e-16 2.24554e-16)
(20 7.45736e-16 1.71851e-16)
(20 7.3305e-17 1.74278e-16)
(20 8.8816e-16 -5.02708e-17)
(20 7.3089e-16 -8.31185e-17)
(20 -2.6588e-17 -1.70418e-16)
(20 2.84129e-17 -8.08134e-17)
(20 -6.61921e-16 -2.94654e-16)
(20 -5.99043e-16 -7.47435e-17)
(20 -6.52455e-16 -7.25167e-17)
(20 -1.23662e-15 5.01899e-16)
(20 3.19362e-16 8.75618e-17)
(20 8.87818e-16 -9.12101e-17)
(20 3.1774e-17 1.01621e-16)
(20 2.71558e-16 3.61929e-16)
(20 1.49596e-16 -5.83859e-17)
(20 -3.12647e-16 3.41363e-16)
(20 3.14615e-16 2.79436e-16)
(20 -6.42968e-16 -2.20258e-16)
(20 -1.40012e-15 3.62279e-17)
(20 -1.26084e-15 -2.52704e-16)
(20 1.53728e-16 9.61855e-17)
(20 -1.91067e-16 -3.4106e-16)
(20 1.21128e-15 -9.97642e-17)
(20 2.20437e-16 -3.18857e-16)
(20 -1.22515e-16 3.86626e-16)
(20 -4.98958e-17 6.09101e-16)
(20 -9.06987e-16 -1.26308e-16)
(20 -5.49982e-16 -1.97444e-16)
(20 -8.78321e-16 -3.10674e-16)
(20 8.5858e-16 1.27731e-16)
(20 9.33301e-16 1.38542e-16)
(20 2.30511e-16 -4.82049e-16)
(20 7.11107e-16 -3.29681e-16)
(20 7.92666e-16 1.65975e-16)