/*--------------------------------*- C++ -*----------------------------------*\
| =========                 |                                                 |
| \\      /  F ield         | OpenFOAM: The Open Source CFD Toolbox           |
|  \\    /   O peration     | Version:  2312                                  |
|   \\  /    A nd           | Website:  www.openfoam.com                      |
|    \\/     M anipulation  |                                                 |
\*---------------------------------------------------------------------------*/
FoamFile
{
    version     2.0;
    format      ascii;
    arch        "LSB;label=32;scalar=64";
    class       volScalarField;
    location    "1100";
    object      k;
}
// * * * * * * * * * * * * * * * * * * * * * * * * * * * * * * * * * * * * * //

dimensions      [0 2 -2 0 0 0 0];

internalField   nonuniform List<scalar> 
209453
(
0.0158049278275503
0.016827256284677
0.0223832504203759
0.0212621868412501
0.0165574605701957
0.0164655318179048
0.0208300381312679
0.0201789399115517
0.0197707299049034
0.0157907090058027
0.0160114398138116
0.0155311678552952
0.0153833651517364
0.0154604059461597
0.0155982954117886
0.0161723215306693
0.0211263056763656
0.0208377756101699
0.0158861848032088
0.0159752031981171
0.0222452464491604
0.0223611790025902
0.016294471476409
0.0156833642830176
0.0155351532192756
0.0156201732115235
0.0157722845737127
0.0165429484777865
0.0236473541722126
0.0235496039388442
0.0161774666061948
0.0167396089024727
0.0247216565439568
0.0249208600639389
0.0171704328076878
0.0173116343167577
0.0253213863510771
0.0238008007431009
0.0169743517416361
0.0171467298445201
0.0234350567419205
0.0226895090446954
0.0171522211950276
0.016990392276126
0.0210300545889171
0.0196511349465638
0.0165795237448451
0.0160329664763161
0.0186255551825128
0.0171719336216579
0.0155530700027184
0.0152644659517487
0.0163347284504593
0.0157512200503778
0.0153141786968337
0.0150262950625836
0.0150622863243614
0.0150494564392848
0.0150148288999577
0.0150111365786532
0.0150081632768143
0.0150231923025233
0.0150384242577435
0.0150745625620492
0.0150476739289338
0.0152259556910486
0.0163415775712149
0.0163916105114752
0.0152584619950928
0.0150607518685802
0.0150872170901033
0.0156036963575107
0.0157018226432212
0.0152726564783309
0.0152904935635691
0.0150252626678574
0.0150264927846748
0.015544880757056
0.0171624420731638
0.0169934090298033
0.0154243469237194
0.0151092464468575
0.0151671113244481
0.0151829650452955
0.0151177695505453
0.0154491628120467
0.0156440978678942
0.015666065422415
0.0154657576253807
0.0153237795282922
0.0154462179249373
0.015203913881958
0.0151313447861521
0.0150871873887034
0.0151274532739391
0.0152115731622219
0.0151446871927965
0.015201230065334
0.0152674793792438
0.0153160272894821
0.0152607366449663
0.0153294769674171
0.0153916578834683
0.0155302190161045
0.0154188378848212
0.0157805615979828
0.0160061848954486
0.0163356263243345
0.0161722154779406
0.0173929123285533
0.0262361333763986
0.0263036489500802
0.0176863452124579
0.0178008956418574
0.0267314975286381
0.0258511724620426
0.017497359515043
0.017758506523155
0.0267372561333444
0.0276193198204907
0.0177830862496458
0.0178461811039045
0.0273455700631108
0.0278075706097711
0.0177394897244376
0.0177967177146099
0.0280187446492971
0.0307069782227681
0.0193227100209156
0.0188960377438605
0.0297800991520871
0.0290377219185373
0.0183295821940372
0.0185411719572209
0.0307760722541804
0.0299250653039189
0.0178343382350706
0.0174072748669676
0.026902997037596
0.024679818462595
0.0172493899528245
0.0168040254768847
0.0238093574767236
0.0221857841332
0.0166957404661457
0.0165817186408998
0.020767108085611
0.0195442936123754
0.0163204032530342
0.0162471938905615
0.0194023615269202
0.0184879287740926
0.0160178509709152
0.0155545856942271
0.0172471445743317
0.0164286457701611
0.0152819468079086
0.0150548298690463
0.0150201061039654
0.0153218679905702
0.015828009711566
0.0158364272438807
0.0152869895789253
0.0150116287021937
0.0150342879612455
0.0150180234335665
0.0150078801941254
0.0150132675380585
0.0150342507002218
0.0150387110728133
0.0151489676122476
0.0150953349372046
0.0151871020362035
0.0164385929678694
0.0164407596958131
0.015116814419675
0.015016396359181
0.0150045134015552
0.0152883782932733
0.0158302093981325
0.0159096356229421
0.0153437157074881
0.0150013407729892
0.0150126248830946
0.0150085890438732
0.0150047260623047
0.0150025668562669
0.0150050061744927
0.0150085984591127
0.015003801141061
0.0150053466968292
0.0150157737564915
0.0150105902166188
0.0150050294452496
0.0150033240829897
0.0150043949003464
0.0150016827518952
0.0150013742371928
0.0150032682483485
0.0150044052451115
0.0150088116019686
0.0150061313324399
0.0150074689762024
0.0150168338087454
0.0150631098235556
0.0150327215145512
0.0150198393184929
0.0150293553292091
0.0150757831755633
0.0150561625509471
0.0150822137120356
0.0150998873240937
0.0151327371899726
0.0151178928795526
0.0151572533388629
0.0151923927792008
0.015235407048881
0.0151998251948634
0.0152431968812616
0.0152812391595612
0.0153341823643663
0.0152910663338529
0.0153448420640483
0.0153873953623276
0.0156685911419718
0.0155514074984546
0.0156320192079511
0.0157305337519574
0.0163820892135948
0.0162302470244919
0.016231093437869
0.0163743902476299
0.0176264155517762
0.0177205484973567
0.0180761125032208
0.0177937334869131
0.0177342502085953
0.0179624627036775
0.0192951949678625
0.0321957153765332
0.0312310275320317
0.0189188050249106
0.0184016606982082
0.0308704776476518
0.0323827191223432
0.0185806608318667
0.0202458712810361
0.0344502701453555
0.0342264569313684
0.0196456094777475
0.0184353870766458
0.0310405560848449
0.0280352153728517
0.0173049915011802
0.0169418671576792
0.0256642253594952
0.0253278983113238
0.0164370021261118
0.0163868705241266
0.0236294718058124
0.0221422561964825
0.0163743495719535
0.0163755058956754
0.0207219287894728
0.0211357353974757
0.0164339161380211
0.0163605632132911
0.0194959785891866
0.0192716790264861
0.0160935242749308
0.0157615440509642
0.0184038596122037
0.0172328695780336
0.015424175450231
0.0152511568656993
0.017210546916978
0.0174151790193709
0.0153793597126636
0.0151596527865103
0.0165732353135609
0.0166609617409398
0.0151422917673401
0.0150112469621939
0.015003841216096
0.0153738829461063
0.0159613333226391
0.015902303346094
0.0153415417727812
0.0150023096998016
0.0150088768391555
0.0150059725532356
0.0150026347544248
0.0150025981367203
0.0150062490220427
0.0150064019543711
0.0150024628520781
0.0150024492862029
0.0150065209513834
0.01500681320313
0.0150017169446604
0.015000947716951
0.0150008548191762
0.0150046668251215
0.0150051570056823
0.0150150979556162
0.0150127954522095
0.0150307185702293
0.015039909187385
0.015086918126046
0.0150689148425696
0.0150939930632244
0.0151069442509293
0.0151363446858694
0.015127321086044
0.0151144328546592
0.0151249636883175
0.0151585653920987
0.015148735388359
0.0151546551241768
0.0151693084720179
0.0152068834304074
0.0151912753604214
0.0152286046791507
0.015245241450574
0.0152820933935493
0.0152658004010653
0.015285631513857
0.0153023667936532
0.0154080971401792
0.0153666245559442
0.0153747099581793
0.0154174108624554
0.0156998279396835
0.01558802418642
0.0156271902985515
0.015733043915729
0.015785135994963
0.0156970510994678
0.0162988133935828
0.0164422378798008
0.0164317696304517
0.0162889333907863
0.0164810880270406
0.0165951933561059
0.0178460962982563
0.0181004540991088
0.0194841461778058
0.0355371999168726
0.0335355209821138
0.0191778915570819
0.0199689722892699
0.0207791994140585
0.0382804380321225
0.0355888278419741
0.0340223496912576
0.0190967236089634
0.0197530320791484
0.0360622346430212
0.0386522670769455
0.0429923742080937
0.0215386448672191
0.0204090689839604
0.0193034934760623
0.0188128288216464
0.0188461063298728
0.0193102457510125
0.0204987469144054
0.0214632088893914
0.0457296151423969
0.0410303497389238
0.0432361603152756
0.0205674945480577
0.0207434110404559
0.0398045497829473
0.0397207927679933
0.0207819487658432
0.0207106985216966
0.0366112842643435
0.0204480736729565
0.0180828170178855
0.0204667601587969
0.0403090645346317
0.0351354152342785
0.0201578677594748
0.019572099748969
0.032700127354424
0.0295554876003015
0.0175420051643341
0.0166038027822638
0.0272937671978188
0.0280719312739654
0.0165682273212713
0.0164848952428568
0.02604385267554
0.024281121723235
0.0164567401172344
0.0164499945369819
0.0227565403665743
0.0234892297269969
0.0165527367288509
0.0165795763479185
0.0213925988178879
0.0205311204083906
0.0164123476857353
0.0160193641807376
0.0197792187168192
0.0189778305748433
0.0158646429380268
0.0158741728697222
0.0196711135849427
0.0181593221958214
0.0154652188513034
0.0156209127264609
0.0185623182188606
0.0186799879571556
0.0154691342296362
0.0153448792397702
0.0175316160104179
0.0173243728684044
0.0151402017148237
0.0150692640137199
0.0165555929692159
0.0165525954885858
0.0150712099344454
0.0150132143212744
0.0158998323989794
0.015341155266068
0.0150033681447931
0.0150038627393045
0.0150084579452339
0.0150072163965519
0.0150026344851237
0.0150024013003647
0.0150076018344213
0.0150079492172857
0.0150022084379523
0.0150016498491936
0.0150126078102128
0.0150063746866781
0.0150049176192201
0.015000238086041
0.0150000554162651
0.0150057497812615
0.0150043026017345
0.0150224547059316
0.0150379785961461
0.0150785606377134
0.0150528102003134
0.0150159479329192
0.0150226241279843
0.01507687606966
0.0150479666003892
0.0151020664984732
0.0151408640687411
0.0151669130690378
0.0151327073769233
0.015173442656351
0.0152059710088884
0.015143568444162
0.0151312629162854
0.0151671539337652
0.0151790752461734
0.0151697376880909
0.015161413596615
0.0151954060237188
0.0152039258551144
0.0151930048230988
0.0151829505089436
0.0152174934002712
0.0152280053243713
0.0152621896530326
0.0152514464215434
0.0152700416107458
0.0152817998649292
0.0153013414678228
0.0152844189044301
0.0153041869666334
0.015322508122421
0.0153234292359963
0.0153052647742842
0.0153892725095079
0.0154295509347916
0.0154403691129676
0.0153997847495587
0.0154230005197018
0.0154640860244881
0.0157595519149071
0.0156601692745054
0.0157803158189276
0.015842005905633
0.0165289741542736
0.016388054708903
0.0166150837813339
0.0167030500809088
0.0172103407297803
0.017127145668619
0.0186183392669187
0.0183510463420628
0.0171536905268125
0.0168524785724022
0.0163396664820685
0.0158364821009085
0.0157260800796941
0.0157297804526742
0.0156760300878368
0.0156658954966902
0.0156315003901586
0.0157455686307127
0.0157309764554154
0.0162980542097755
0.016863218531362
0.0268467499614501
0.0238094858418911
0.0164503537021282
0.0158106749234564
0.0218201390973548
0.0201161911562583
0.015609701066393
0.0153211541597413
0.0193235164102678
0.0182406782448319
0.0152210340125366
0.0152249020923952
0.0182247959197527
0.0173169791121148
0.0151434133457108
0.0153587761244048
0.0175243817210846
0.0166620228331057
0.0151468174703546
0.0150111902030915
0.0150055263659373
0.0153728569287627
0.015960964570553
0.0159108064878901
0.0150130659361529
0.0150018385668234
0.0153425005057114
0.0152870849400753
0.015805548920666
0.015015292954755
0.0150023415738622
0.0150034197136694
0.015008590703302
0.0150069587772843
0.0150030509015705
0.0150043877978479
0.0150095609142446
0.0150128096530278
0.0150588738939354
0.0150553190113003
0.0151641723163533
0.0165770333211771
0.0164011330750695
0.0150995594024548
0.0151581999294517
0.0163851293528218
0.0158073936765018
0.0152852767286552
0.0150065774713713
0.0150281705132467
0.0150147153196872
0.0150046568911263
0.0150097101717945
0.0150329096691877
0.0150441108297243
0.0150091189016598
0.0150270163573425
0.0153128721930559
0.0157399400515508
0.0150625483519008
0.0152805959868088
0.0163156907213209
0.0162936738012289
0.0162772432851988
0.0151432661289838
0.0152525646522715
0.0150607312231575
0.0150440779059094
0.0150190791069439
0.01502700286113
0.0152725217208976
0.0152904668612179
0.0155948247087517
0.0156530508467318
0.0155925674482795
0.0154124824369638
0.016873731444209
0.0169833447714365
0.0171594840276336
0.0155444722157297
0.0159815306047081
0.0185688436816609
0.0182579484019137
0.0179215583426511
0.0157002294283434
0.0158416808536292
0.0156362851323303
0.0154204155928336
0.0151318294606501
0.0152000586612389
0.0152267977344248
0.0151505650876045
0.0153083017700031
0.0154450907003313
0.0156581456788256
0.015436716585022
0.0156966288023921
0.0159197824682136
0.0189690162782656
0.0186178664592459
0.0195676196462111
0.0157364641482624
0.0159895406434914
0.0199250955121385
0.0205803473054677
0.0163907978197759
0.0164708038125096
0.0209939995531551
0.0208357056736883
0.0205973134810643
0.0158018316158985
0.0161212099312983
0.0155671370224241
0.0154197943996967
0.0152216023413433
0.0152770021379834
0.0153264863575535
0.015274574992967
0.0152149792856507
0.01524802637798
0.0152903919210235
0.015255938094849
0.0152025295137029
0.0152147917033329
0.0152510303411041
0.0152385885690214
0.015229941689284
0.0152389765823215
0.0152736854866092
0.0152640523062462
0.0152829170182687
0.0152937772284648
0.0152817157954337
0.0152699158226705
0.0152897486941276
0.0153035491366984
0.0153033643849629
0.0152896576167921
0.0153098149808572
0.0153265278369289
0.0153449704764707
0.0153242703156106
0.0153252339543142
0.0153458223564921
0.0154507824260875
0.0154109336203811
0.0154229034325598
0.0154582760548464
0.015472243675331
0.0154385888340137
0.0154506938889317
0.0154851107147164
0.0154858623694677
0.0154516354181662
0.0156802176344357
0.0157642015903419
0.0157887071168658
0.0157042902068758
0.0158108837347493
0.0158672194701497
0.0158723599869106
0.015833121958442
0.0159160898202747
0.0158763465170906
0.0158499699959357
0.0157940127542842
0.015790311376092
0.0158488584344002
0.0157679185329065
0.0156777613759541
0.0156673163754047
0.0157564667460591
0.0154716120278375
0.015435119723493
0.0154349707126784
0.0154713513742667
0.0154857756316669
0.0155218009961806
0.015538292798417
0.0155472734195327
0.0155471379064842
0.0155616014009703
0.0155618677824444
0.0155636225919626
0.0155631512976188
0.0155716912077833
0.0155699943360638
0.0155869554192446
0.0156099879725145
0.0156129788679924
0.015672972708704
0.0158130375908197
0.0159013444344157
0.0154451462410586
0.0154718837539782
0.0161894810057884
0.0237847892854198
0.0220996451963036
0.0159361495025511
0.0155759754728279
0.0205821399469023
0.0205526205952242
0.0157768367566962
0.0153606576307417
0.0192930619759495
0.0200036870681375
0.0156791839248315
0.0154758810229938
0.0186406417478704
0.018512175663011
0.015523448494904
0.0153750178861885
0.0180439991705395
0.0180753777137255
0.0155749780334967
0.0153234694812278
0.0171242174910192
0.0172039001376371
0.0154687807881754
0.0157221663814715
0.0182097981130491
0.0199873803927257
0.0163435196546929
0.0161649711775217
0.0192465601332026
0.0195369459256448
0.016561845441642
0.0165846366013603
0.0201894312202031
0.0214808368443772
0.0168784624246526
0.0167045681981732
0.0220790156622152
0.0220452203655489
0.0219981760184355
0.0158653368219374
0.0162155177195655
0.0156388332241372
0.0154915645527784
0.0155890369237922
0.0157365238019843
0.0153879430487566
0.0153339715926036
0.0154088404005961
0.0154713817914115
0.0153350486813264
0.0152995618430401
0.0153446802393536
0.0153776732579713
0.0152861663933518
0.0152739866797923
0.0152932960250021
0.0153063922636004
0.0152937659375752
0.0152829083260019
0.0153033375639053
0.0153164521710846
0.015316257556946
0.0153031680996576
0.0153242291011017
0.0153407322471253
0.0153271479893376
0.0153102254959467
0.0153210871426568
0.0153354450171681
0.0153482151222692
0.0153350212165593
0.0153344022560127
0.0153473402577254
0.0153472194485181
0.0153342667598881
0.0153483336563739
0.0153648007766575
0.0153652585571059
0.0153485896912866
0.0153494472073876
0.0153659404520477
0.0153658114957872
0.0153492893594896
0.0154326462684534
0.0154656685683212
0.0154771727883826
0.0154462595225452
0.0154557290269828
0.0154876643065422
0.0155005446755175
0.0154678743943985
0.0154693691398503
0.0155018220216527
0.015773958613452
0.0156955436985662
0.0157310852922546
0.0158118659548788
0.0158910810985871
0.0158355495212558
0.0159035252632082
0.0159271429956763
0.016262526431187
0.0162732038511528
0.0163085325552717
0.0162989338162402
0.0167791714338616
0.0167001425562606
0.0172310913383176
0.0173073795429081
0.0189924220283539
0.0185892327920114
0.0208930767801442
0.0447525534905751
0.0408631007616167
0.0203540573569421
0.0204744832245512
0.0429385585771428
0.0451832263094265
0.0204546441102146
0.0207351360388747
0.0431033187197943
0.0436134641162567
0.0208299704453447
0.020906271432756
0.0487775417307876
0.0441338416752274
0.0215319707114522
0.0223807135510844
0.0434357763908892
0.0379667909830412
0.0217070464164701
0.0214973849841902
0.0375314063130899
0.0350434684922233
0.0208221820635231
0.0203723478004976
0.0342792112917056
0.0366758764857523
0.0193414075349443
0.0180964464463578
0.0328664367410987
0.0303229452819833
0.0170765785279318
0.0168946999688294
0.0330985759209729
0.0301196160906852
0.0166742497207741
0.016607041276817
0.0274761766574757
0.0252859008720272
0.0165667843109099
0.0165725719880809
0.0242618628032392
0.0228047402049691
0.0165570276152806
0.0161628650282326
0.021693806397952
0.0205092714133422
0.0161127240312757
0.016058790599668
0.0204443277986948
0.015989582008641
0.0161028861225691
0.0161625975008043
0.0218311022390903
0.0227399307735153
0.0161458859360881
0.0160512471027367
0.0202822307448976
0.0153286126824565
0.0151297523196686
0.0151343474470492
0.0152869441345164
0.015937505763789
0.019889155473699
0.0191134682979381
0.0156809037000558
0.0160323113831117
0.0194297544572976
0.0204126263095503
0.0164211477658864
0.0167967013020813
0.0211232335511459
0.021128722047649
0.0166113439145169
0.0166571495341816
0.0217146815351836
0.0224658223257121
0.0170417520937958
0.0170281701207435
0.0231015768747668
0.023412882194245
0.0169002393732758
0.0162608323359302
0.0159073141963542
0.022798538816361
0.0232476694147022
0.0243607576291238
0.0239086141230157
0.0165018099728903
0.0169711170116847
0.0159410216226352
0.0157491192719173
0.0161477243140516
0.0164222252367525
0.0155841699465897
0.0155159837315215
0.0155450554318719
0.0156100245871208
0.0153993124721795
0.0153665396038462
0.0153649461841109
0.0153967813192364
0.0153064008094832
0.0152932264743205
0.0153141673927142
0.0153293808486032
0.015329070339044
0.0153140416211046
0.0153357455256215
0.0153540383069883
0.0153412800550543
0.0153246665119549
0.0153362074517904
0.0153501920336814
0.0153637086297579
0.0153510152143893
0.0153501534985689
0.0153628138839176
0.0153629104532777
0.0153502775689109
0.0153353675186264
0.0153484931322981
0.0153631701615315
0.0153505991445319
0.0153499239982211
0.0153625996259744
0.0153614718502168
0.0153491157682108
0.0153489667607136
0.0153613290048287
0.0153784574136721
0.015362878444496
0.0153633552053541
0.0153792547740172
0.0153797327906485
0.0153640281603512
0.015363890447777
0.0153795954196101
0.0153936008011778
0.0153777136326253
0.0154582891169168
0.0154887198652649
0.0155030691435554
0.0154711074973334
0.0154833914668473
0.015516201640126
0.0155179366974654
0.0154854070337516
0.0157081544345924
0.0157848583827717
0.0158351356832853
0.0157540561084564
0.0158600395667845
0.0159165809351211
0.0159587342362023
0.0159380655618853
0.0159747357976642
0.0159882613826955
0.0164766000440286
0.0164748610110431
0.0164969340501507
0.0164937340031915
0.0168573232682426
0.0167880721114674
0.017327549487899
0.0173957947279962
0.0188475329558212
0.0185906636128585
0.020747710161334
0.0475811227356504
0.0429629169555022
0.020351201367838
0.0204121492802673
0.0463190148470312
0.0518396945164659
0.0207788184578611
0.0186527170844345
0.0188736218154782
0.018954591024615
0.0187457714025228
0.0208714230091597
0.0570138054644744
0.050272321110954
0.0205201095340653
0.0207190373092254
0.0542912344504804
0.0493344773783433
0.0204841352039454
0.0209267818590721
0.0479791513968057
0.053875400818928
0.0214057491537683
0.0211575244145278
0.0550485560881052
0.0504246498496854
0.0239108222957954
0.0251947873293444
0.0486223998110951
0.0415843642071137
0.0235679366539783
0.0233958297358813
0.0412616251950923
0.0384836639639049
0.0221688301690572
0.0204664381220601
0.0370733045485883
0.0432450586063023
0.021142188741292
0.0197154119974966
0.0404680197152859
0.0449715247237212
0.0189730338441441
0.0183343558315667
0.0404559444430265
0.0364663345382675
0.0173804451152279
0.0169629528807435
0.0339398476695766
0.0310332529849888
0.0167972553344457
0.0166969523542194
0.0284690227308213
0.0261643320968422
0.0166160578087835
0.0162399104590469
0.0244422313248419
0.0229175446670229
0.0161923538752496
0.0162062362673732
0.0230208522804875
0.0242606184790119
0.016437582155898
0.0172910693627129
0.0257036570194698
0.02737317871235
0.0175715530429787
0.0174076986138096
0.0281544628429657
0.0301936130964885
0.0178925101603504
0.0173579991527156
0.0298171673840239
0.0259241835558843
0.0166495284409059
0.0170571742024167
0.0256922213713536
0.0238422354625108
0.0162332196277505
0.0159972237028692
0.0221042937833243
0.0241992339068264
0.0165855927042475
0.0162755055681909
0.0216276813853224
0.0221132348558638
0.0168610821502085
0.0161227919510114
0.020702303211395
0.0200648447375075
0.0161557297367974
0.0163403825190328
0.0209187387669219
0.0218097154276872
0.0167730789522
0.0168877176813081
0.0228810075634822
0.0227291953573002
0.0167358358258671
0.0169333632861723
0.0233674515062651
0.0244065389062774
0.017315123873212
0.0175525217346155
0.0248782509900929
0.0247786091859148
0.017429465092268
0.0179609123639398
0.0263576064915518
0.0256519957374321
0.025207532402043
0.0171485869472076
0.0176987157349013
0.0183640671183267
0.0179113866786173
0.0268407325622156
0.0271576315356835
0.0279752222178004
0.0184745865459142
0.0187924388689619
0.0300481061994105
0.0292390986844363
0.0293364979659655
0.0189585940239158
0.0191192376300751
0.0185226255136011
0.0180689555480012
0.0178095013076459
0.0183821522276436
0.0165061776572414
0.0162467711044463
0.0162310044487079
0.0164955316010454
0.0156223709200126
0.0155514737387767
0.0155860293409918
0.0156549497901792
0.0156311798741124
0.0155710463747752
0.0153900374039609
0.01542332110724
0.0154166170361137
0.0153855880330272
0.0154062434184839
0.0154374278450005
0.0153548551606072
0.0153362619125558
0.0153484466173739
0.0153641195854552
0.015378334091433
0.0153641314749264
0.015362997466865
0.0153771918487063
0.0153765537377556
0.0153625184497904
0.0153512043505338
0.0153639534334947
0.0153798438654894
0.0153675835677487
0.0153669511462898
0.0153791505662064
0.0153779490341908
0.0153658275218499
0.0153660390134953
0.0153781449219479
0.0153938278330251
0.0153813780380646
0.0153653718731456
0.0153782639285141
0.0153772877849134
0.015364275289037
0.0153632670380305
0.0153759028128787
0.0153757065087029
0.0153630938095251
0.0153766944235959
0.0153923544108726
0.0153934925001951
0.0153773647960282
0.015377849201154
0.0153937944700311
0.0154080132906325
0.0153914802352619
0.0153913307277231
0.0154077306363897
0.0155002464334187
0.0154698570710712
0.0154858459924971
0.01551832894297
0.0155319152362
0.0154984342920035
0.0155009425785803
0.0155341123321428
0.0157964371944008
0.0157201835648906
0.015775862554773
0.0158582220306152
0.0159425579831149
0.0158844368237234
0.0159088420929812
0.0159685702557223
0.0160172960393153
0.0160040070177922
0.0160335467073108
0.0160465982569945
0.0166014448328737
0.0166130094058722
0.0166270779493495
0.0166055208226997
0.0169404917243829
0.0168819756599474
0.0174432355102555
0.0175072873127609
0.0176398759267248
0.0175750878466416
0.0177191353461385
0.0177844366507138
0.019058331663279
0.0188621670830475
0.0209991353194173
0.0632512910922905
0.0550429486477485
0.0206633258274101
0.0210038983326091
0.0601025805263402
0.0609871276514791
0.0219346028110576
0.0213062215379178
0.0613010668605333
0.0578196653879785
0.0242948847561949
0.0265548453448925
0.0614705461758269
0.0556283389957866
0.0269234284025689
0.0271809899908543
0.0524521215579769
0.0452349442283594
0.025055682000169
0.0247465002252594
0.0445454346311817
0.0484274081234909
0.0246905199140942
0.0233855380047758
0.0480625721859281
0.0520393728860548
0.0235409462547527
0.021599460692092
0.0495580067112252
0.0445459651709439
0.0202467916004015
0.0197735662069693
0.0499138110520575
0.0448213729708423
0.0180864977921385
0.0176056228284962
0.0408583662552503
0.0372261060194838
0.0172399429013975
0.0170323072218356
0.0347351945038388
0.031726600296006
0.0168005619236567
0.0166304661587965
0.029054929823999
0.0266097252397618
0.0165289905952292
0.017083296040747
0.0259854530803426
0.0268286122005262
0.0175985337523981
0.0176885698692383
0.0284757106437912
0.0307515275641201
0.0177858898571
0.0179674069037326
0.0334187047869334
0.0363893428360943
0.0181475832803822
0.0178539935489402
0.03123411519954
0.0338999281359366
0.0184618116085371
0.01791639594891
0.0331092871401689
0.0285321397000088
0.0170654495480154
0.0178766411769352
0.0288572751595432
0.0313462593693335
0.0190637659400975
0.0185575621858213
0.0298912164412487
0.0268484927195091
0.0170038686795368
0.017413093821481
0.0261307812528225
0.028586800241547
0.0175209427921729
0.0173410713448367
0.0264779768896299
0.0247275199859855
0.0172424824572102
0.0171677997067979
0.0231078807394095
0.0219104836045869
0.0164743032651846
0.0164042139940667
0.0215951579478002
0.0226998460752737
0.0170326869038361
0.0171201785387839
0.024967727770557
0.0245740793514218
0.017007179357315
0.0170002780360252
0.0244670901870355
0.0252842621632286
0.0174852451358868
0.0184824092295947
0.0273945874376327
0.0270123245973595
0.0185065714529646
0.0184122044014608
0.0276278807668359
0.0281522347542138
0.0188875496434115
0.0191575439155957
0.0306955092032446
0.0332296277811889
0.0192724284932112
0.0190908552389881
0.0323751861544964
0.0314820572210415
0.0321675146550408
0.0190748823451987
0.0196332487154486
0.0183091476110337
0.0179638930595835
0.0163308729840506
0.0165832748147077
0.0165301574418491
0.0162902159452595
0.0163324481718105
0.016538003074357
0.0156878046977491
0.0156200789628353
0.0155936330410629
0.0156482565833729
0.0154492688507775
0.0154143321052438
0.0154271912243764
0.0154576056325544
0.0154723574743823
0.0154439177620027
0.015435445656878
0.0154612120292029
0.0154492282079318
0.0154245111540024
0.0153640026853851
0.0153783951229756
0.0153955514796799
0.0153817644974961
0.0153814428612779
0.0153949419029615
0.0153937319549421
0.015380115838923
0.015379063197612
0.0153924696631448
0.015409426663011
0.0153956924458162
0.015383896733711
0.0153965474402489
0.0153952555628315
0.0153827069694143
0.0153811612531769
0.0153935917339795
0.0154097617424086
0.0153966258677925
0.015396605247342
0.0154099090290155
0.0153936624700961
0.0153800148005516
0.0153784223821595
0.015392191377978
0.0153905187679523
0.015377229484049
0.0153770328182017
0.015390248404783
0.0154063941076965
0.0153903177655819
0.0153911630997519
0.0154078713213118
0.0154225548640601
0.0154052941200204
0.0154054441461658
0.0154225508800304
0.0154221688713033
0.0154052752833346
0.0154816583173209
0.0155120365383764
0.0155337863816842
0.0155007816764377
0.0155138387238765
0.0155480165826432
0.015550708366069
0.01551687254387
0.0157326153506469
0.0158085618961652
0.015881301763043
0.0157978212786486
0.0158197581318584
0.0159042288121951
0.0159946522651332
0.0159331612015714
0.0159574396668107
0.016020795741861
0.016075673964248
0.0160622875275376
0.0160917135886954
0.0161052656725391
0.0166935932322201
0.0167256771224346
0.0167360174899572
0.0166932293626775
0.0170294011676893
0.0169814384570265
0.0170807871548272
0.0171230400537079
0.0172188157135098
0.0171841623308561
0.0178713003609828
0.0179343657843396
0.0191768926531747
0.0189948157500246
0.0211492131628804
0.0703645565527092
0.0604762276986879
0.0208336239587361
0.0212304227326405
0.0669821090309393
0.0695627457783569
0.0223833288897132
0.0214981947048671
0.0683085688522254
0.0664269610343132
0.0240871390820216
0.0262424496008075
0.0709785324092486
0.0621635603811305
0.0267429292587348
0.0250856874386945
0.0514621959758133
0.0468935547382018
0.0249708091594844
0.0246794387690293
0.045932444639867
0.0492852519763329
0.0246719612583134
0.0248206103807981
0.054676118001279
0.061755445715287
0.0252278192455486
0.0235060138581866
0.0564870225065596
0.0631466346700982
0.0244119080610542
0.0228151866873008
0.0608903189160508
0.0499657135182216
0.0209699566974795
0.0209255055664607
0.0554299127118272
0.0492064063159228
0.0187325017802653
0.0181351138018251
0.0465979544936019
0.0420879577833444
0.0176860507936632
0.0173229953848208
0.0381735161740772
0.039770015460106
0.0179404913437698
0.0176407024781658
0.035898111836781
0.032463950242397
0.0175113527598654
0.0174488008563172
0.0295937526850105
0.0173869791285932
0.0173281042712696
0.0174206103847283
0.016694285609331
0.015656375620428
0.0156111426091642
0.0170083774613659
0.018263607689457
0.0309173172048725
0.0365693649539071
0.0182115958728865
0.0179615041173072
0.0336975547144428
0.0308689940838613
0.0177310274288176
0.0177692488868871
0.0301733840608136
0.0278786872421956
0.0172914930687974
0.0178479671907206
0.0295032071875951
0.0273628129186313
0.0175202067006998
0.0172699421280034
0.0255867503659736
0.0242198968449131
0.017107944010288
0.0165805565230901
0.0233001285233219
0.024565887708121
0.016762762966292
0.0170019151391816
0.0260889682719424
0.0279176541635579
0.0175160860198599
0.0173186448413484
0.0260010506916092
0.0244029489073649
0.0171746940526312
0.017146098509288
0.0162078442585746
0.017037146150004
0.0245996277429611
0.023493214727484
0.0171590180632416
0.0170501055892267
0.0172437566987626
0.0165307015162343
0.0174320609596582
0.0272044245197535
0.0288738348563813
0.0180138476099233
0.0173421270598696
0.0175993351567166
0.0180305766635558
0.0327321956355142
0.0298963595057724
0.0175957821535505
0.0182120427761507
0.0320346619625749
0.034008808242452
0.0191420773595427
0.0197444245053452
0.031037189988742