/*--------------------------------*- C++ -*----------------------------------*\
| =========                 |                                                 |
| \\      /  F ield         | OpenFOAM: The Open Source CFD Toolbox           |
|  \\    /   O peration     | Version:  2312                                  |
|   \\  /    A nd           | Website:  www.openfoam.com                      |
|    \\/     M anipulation  |                                                 |
\*---------------------------------------------------------------------------*/
FoamFile
{
    version     2.0;
    format      ascii;
    arch        "LSB;label=32;scalar=64";
    class       volScalarField;
    location    "1100";
    object      omega;
}
// * * * * * * * * * * * * * * * * * * * * * * * * * * * * * * * * * * * * * //

dimensions      [0 0 -1 0 0 0 0];

internalField   nonuniform List<scalar> 
209453
(
3.61351152322538
8.63410287321654
29.5168187565569
27.1835802583751
7.67719979893844
7.41579364098258
26.2354480008007
26.541493451314
28.1536959655111
5.81503500022864
5.56845062550443
2.93001027697447
2.73395259656466
2.89135266282841
3.05269007553676
6.10783645902626
28.1691217784841
29.1580097831751
6.08434081435934
6.2327985054402
31.0736649291761
29.9403519796126
6.46014739339907
3.24919421806084
3.05332322437072
3.30455761337048
3.49700121378246
7.2580009489913
31.9402237374247
33.2851823628022
6.90277299864754
8.88841205828661
38.3307217735606
37.0211057287758
9.45200423642618
10.0957686545895
35.9647957647488
32.16694936544
9.11757372610521
10.1090228629176
35.9769175100153
34.7378769313509
10.2599410341936
9.78479065311807
31.0072913868003
25.6635893956736
8.13731552615546
5.5907974065116
20.3732268037271
16.8696888330168
3.55628134671028
2.38847234889189
14.479557631611
14.0528735763318
14.3078949844851
1.08329845127351
1.0991218100992
1.02230814828091
1.0038963302828
1.00292335521006
1.00200648958322
1.00596291014883
1.01298862361178
1.02855500629084
1.01317955516174
2.48493085536948
17.5239308711926
15.8854161292636
2.40821809583472
1.15515331055101
1.8138285328041
16.0655072043914
14.4258428242716
13.9025837839023
15.37895572198
1.15330930259649
1.15752777327732
3.88394955272352
18.730520929437
20.1815843171406
3.92606862643945
1.33467372419747
1.38300278279863
1.39071354833469
1.33774108679483
3.74297176426347
4.01220493281206
4.02971551749877
3.75343073549038
2.6364357017965
2.66392616220385
1.39961927665476
1.34260806070678
1.11179507408761
1.14341837760347
1.41882927888451
1.28936639286425
1.40524222806144
1.50935197750966
1.54066756298364
1.51041577008705
1.65440594582983
1.69042318754551
2.10336609141358
1.89085424402614
3.87772770317796
4.34668809698627
5.64316600054223
5.47382995638783
11.4936818488045
48.3320042055967
46.1559368942238
11.5427903134418
11.8635623473197
44.4674233117651
39.9877892296105
10.70190200049
11.4974644293275
41.0202952664401
45.5615522025143
11.584944064562
11.9847262000079
47.0166103009173
52.2150412113058
11.7322636715817
13.2989552310609
61.2235738413109
77.0507143287051
20.7238704064218
16.2155733143948
58.8098564554809
50.9775717121771
13.4487427046539
13.879327429481
49.7402065892434
43.6208580762973
11.7535753675084
10.7322227962307
39.624333488103
37.1719091186616
10.4279115169112
8.2277511308033
31.4283288146945
30.012937143625
8.00367784815841
7.76092877962418
27.6902609545574
23.8655492101281
6.73865786857928
7.31372481980352
24.5630603517132
20.4121019802226
6.11832450901866
3.83067697708106
16.1769713556901
13.6650928001678
2.46335600546374
1.03664687480844
1.00860096321081
13.8942970805234
13.2922704798673
12.149082065155
12.0440115012624
1.00304016511518
1.009972570619
1.00309003854875
1.00125469900257
1.00310158300781
1.00942999633615
1.01168209113913
1.52896782985321
1.47065194832917
2.18604115087973
13.1957290473343
12.785256428612
1.78347976139702
1.00577321225663
1.00165559724659
11.8553295127536
11.9247130262893
13.2253417178249
13.9077561488222
1.00408734372646
1.00981795193361
1.00101237571754
1.00057807508919
1.0002099356652
1.00039141849457
1.00090668084721
1.0003831311156
1.00067339493081
1.00296580574928
1.0011963306866
1.00040797694419
1.00034158585504
1.0005081108277
1.00009678955587
1.00007034048598
1.00015249211535
1.00027308895164
1.00064875507749
1.00033075241834
1.00065812071113
1.00258578902577
1.07168296926752
1.03809629494932
1.00432481975081
1.00821750981983
1.03105745416946
1.02174984228671
1.03781978765665
1.0498330056221
1.07348925430849
1.06274098453286
1.17282170396783
1.21261259803683
1.25399660604257
1.21503889865815
1.26677524486429
1.30715771248756
1.39520511424943
1.34174150080726
1.44605097711693
1.50895155066532
2.54544114952414
2.30086786058967
2.55676361590774
2.71896880336141
5.71652309539378
5.55478541102765
5.54948715638879
5.70418399409541
11.2165051058741
12.7899940626262
14.4852789260954
11.8671809534038
11.4794168988676
13.7475984888955
20.4661606688905
88.6921319934918
66.3639759791686
16.2653578061707
13.5520814022001
56.9373859926119
59.4292545698581
14.0955937200248
18.8883048175025
61.8011021716352
54.0969191901586
16.5266899530811
12.1447489841678
40.7932631653958
35.3115503168018
9.43920739704158
8.5456594842405
32.8572298972108
30.87580103808
7.96168985933541
7.93550968729413
30.1855763341689
29.6304184588701
7.96717046426634
7.96831875026913
28.1144212463477
32.9198150401736
8.67944957987339
8.1656157182128
28.1826909915745
28.1864248016717
7.37837277702631
5.40128695083651
21.1722881803653
16.2155282465623
3.59866383986838
2.60660755425837
15.1428641227106
15.9003765100269
3.60422713447416
2.20300876174719
13.483082662622
13.8094209211629
2.07577801619613
1.0110230209083
1.00366795566658
14.9601036785359
13.9559888007341
12.8202300800248
13.6187198095587
1.00310946892224
1.00857057660175
1.00047958414
1.00020652638527
1.0002072226246
1.00046658568571
1.00049337020312
1.0001941603308
1.00018559143092
1.00056303285015
1.00060837614365
1.0000970729033
1.00002107638491
1.00001798299867
1.00031913000218
1.00038155023845
1.00172265387241
1.00133217351879
1.00693152427975
1.01137602573138
1.03467754032273
1.02457295828834
1.03508605495321
1.04519048123362
1.06207460708326
1.05514531682629
1.05151202973629
1.05815349001853
1.08482728398828
1.07747100460193
1.09254876011077
1.10500439447499
1.14386045901201
1.12920473334714
1.17699624079438
1.19474233594112
1.25935303474545
1.23427985179909
1.26831913835601
1.29874101756038
1.55070449031554
1.484079343773
1.5076215506127
1.5753614576897
2.59558556891076
2.36140933786154
2.4328319511756
2.65389905345631
2.86123525549681
2.73305336958819
5.65702942974911
5.8218262730982
5.80469797937099
5.6300106746059
6.28594264355286
6.29053568549559
11.7641653791265
14.2118030007662
21.1442288745903
91.9653804988185
69.5538699302742
17.1356054579732
19.8761512254997
26.6113492112045
104.240970685373
77.2183385729234
66.8740334680381
15.6910520218197
17.7308121164253
76.818288162665
88.4013751033699
123.379361592346
29.7023799787427
21.2219845192955
17.0743079834028
17.1006891095609
17.1752055166352
17.1085455223442
21.6382867197812
29.1884300333967
130.157146773261
94.0125673876231
89.0123003556579
21.4579188054652
21.0675004210534
91.2659880388021
90.79837832272
21.2181948105054
21.0905512614581
83.5155849998297
19.9977222923805
10.9807067210513
18.6443727696533
69.3398627970553
52.0241014448256
16.295875272472
14.7016864669241
44.7579137091616
35.4450301449953
10.1462946476334
8.23839424259905
32.0917175616192
34.7865737429359
8.50896005380318
8.42750988640177
33.9534836908366
33.8932168662814
8.48534821268774
8.6212752076054
34.343252287349
43.7811037740376
9.61542453072602
9.96277491391557
40.1164446668684
34.0044143341946
9.07694511798721
6.66244270758814
29.7448659628051
25.3125616358087
5.90829217874139
5.48446870306226
24.8844548201033
18.5318723455685
3.65195578301495
4.79456901465428
19.0576304739831
17.7774391499394
3.80024896415869
3.29546725733636
15.7710745026571
13.4752335927073
1.81004680379995
1.45465430498501
12.5243391453277
12.4917355213637
1.42252981477989
1.00767620033315
12.8052001129768
13.6019592776764
1.00275040800747
1.00038194824956
1.0008402922766
1.00059208842042
1.00021233265532
1.00018598606338
1.00065719392998
1.00079151951629
1.00015369818027
1.00009404281888
1.00236544449004
1.00066208137544
1.00040328767395
0.999971605975315
0.999959152603579
1.00159641029766
1.00148041303187
1.00645200153828
1.01643880154502
1.03617636720658
1.01672149012357
1.00219231401722
1.00438294875703
1.09089547616032
1.05113979981391
1.11517639662447
1.16419012861486
1.19407706859239
1.14057099697075
1.17631778124717
1.23064203874463
1.0766671197944
1.06424060274903
1.09444614553833
1.10751098326426
1.09030724661929
1.08190765644832
1.11792789654287
1.12658536505096
1.12024400851218
1.11167962969854
1.15784579450556
1.16814894533856
1.23189354287149
1.21402496511623
1.24972832331785
1.27465888527099
1.30293163160212
1.27108118471744
1.31565194078532
1.35584589824428
1.34804075215496
1.30855073596986
1.52769247140699
1.59878623560226
1.62315277119256
1.55568699576019
1.60408868640811
1.68102055015436
2.69937980059362
2.49076460853332
2.99186221845832
3.02087199945487
5.9972955714925
5.82808475559421
6.55900835886712
6.47124848002161
8.59383718235077
8.97143053563702
16.3002364104635
13.5655843232938
8.16359262071954
6.72860976450176
4.57976441177934
2.67699022136592
2.30600402142851
2.32182619548665
2.35647715955915
2.33241168350936
2.28586749872937
2.92943090880845
2.89412349609788
4.68974342104082
6.73709070774354
27.2559393486083
23.2921814463279
5.82683730774456
4.52317337612558
20.7467220617286
19.2692745303025
4.16687227294208
2.23712365903156
15.219360852298
14.3935404124377
2.06093358337608
2.00695117704396
14.3146808617388
13.4181599409247
1.77342290360563
3.19504502270652
15.6313148424878
13.7467379675808
2.01507456719244
1.01090123539005
1.00331597627756
14.9114810237196
13.917611084308
13.1720219402349
1.01404073165083
1.00856877315843
13.852795682965
11.8119535672526
11.6874945423182
1.01081173149563
1.00693665496146
1.00032393906316
1.00083472435383
1.00080432084283
1.00030219152831
1.00047867863294
1.00135130516585
1.00234233968338
1.29709797550591
1.34584362652424
2.17880337381078
13.4147707733257
12.198992001428
1.62449207959585
1.9314378956715
12.3458470597969
11.8566927594962
12.0248777954669
1.00250047284341
1.00902351776396
1.00233956018329
1.00054632711806
1.00177110087885
1.00909961426452
1.01911029296015
1.00180694429482
1.09893302668888
14.2885422133323
13.918294402636
1.10836948832338
2.52323178605633
14.3626937118709
14.382569370422
16.1561018038825
1.65858933099301
2.34043099891474
1.16160633806274
1.15075648003427
1.18521117874894
1.16842564872079
13.8977378598952
15.3720833145721
15.4957255918445
13.6983141542305
4.46611207087313
3.90304092446616
19.1208681459572
17.7117493690295
16.7645994416496
3.54546658214668
5.48873055122765
19.9950985847754
22.9946807414936
26.1276975428311
6.04551753802437
5.71517476301731
4.21557373190221
3.6082204243971
1.36614352476207
1.47482694911765
1.48608289544543
1.3739282871631
2.49393595379231
2.72824321859456
4.22165357938977
3.61817369955969
5.69172863944873
5.70824745048978
25.5114214805672
29.5614777863025
28.0189348070626
5.72403979262794
5.83283418845563
26.4048659338069
26.0433831738051
7.50984490756314
7.73284647190832
26.90771323089
27.8522219674081
28.7693750293881
5.92997686602041
6.2838757972579
3.05078934098626
2.696046256632
1.41524882470955
1.53793687365497
1.57042151256726
1.49573143546502
1.21708626191034
1.27054163292216
1.31978274729252
1.26761869081448
1.1332750139416
1.14538647317793
1.20095648399307
1.1885363210013
1.16861276004625
1.18149646934494
1.25406447591906
1.23304210262854
1.27782889724681
1.30616027124726
1.27965751706793
1.2537221548979
1.30675176478788
1.34214854669484
1.33082702651743
1.2965413069958
1.34973174412654
1.39876675146428
1.41897284250299
1.36539182713313
1.35627224957895
1.40823378005703
1.65399680955932
1.57481448304285
1.5959978063531
1.67362872792292
1.70817476288495
1.63203605004171
1.66299240708395
1.73164073743617
1.73400388855163
1.66222092642169
2.4927246842753
2.67745941326397
2.75343195364226
2.56756982740935
3.00090868392252
3.05483005627597
3.07601306426148
3.10795979623615
3.45172100452929
3.08261819130647
3.03897544187265
3.00980541533017
2.98595099803863
3.03210861837049
2.71326961707817
2.51640462866089
2.48537171525157
2.68110290618231
1.70085593706179
1.62578902328673
1.62949253961578
1.70195984052058
1.7319395091573
1.78640612887431
1.83488209383722
1.84847964374483
1.85418476214692
1.88512421182973
1.8814065966622
1.88797772173107
1.88927530123119
1.93439362111395
1.92509469495324
2.01209303840656
2.20746315236332
2.21732415767926
2.5173520489976
3.1420384687304
3.39051072048524
1.80666203258149
1.85039464380808
3.87027794139304
19.2768560390687
17.9431238413953
3.36017711761608
2.71814952587865
16.3471578323358
16.816616331972
3.21595768267136
2.28051402356315
15.2089587219412
19.0872555684041
4.18712771473487
3.63570052127439
17.5225381279937
17.8778396074431
3.98680910454345
2.90015605925669
15.8586375863994
16.8110988472397
3.91389443608726
2.81902126737515
14.2387091922051
15.3744144949724
3.36642307334543
4.43047861627258
17.8733226186411
23.1679385929823
7.02887585063124
6.12972679937379
23.0535606641229
25.4917143035534
8.16539415496794
8.72401192975758
26.3663944860825
31.9312061719662
9.64217478070711
8.62433931305475
29.2465200353439
29.6528835569355
30.7211703985523
6.02639461020076
6.56708593667355
3.18520150933116
2.83007516954153
3.04424850937607
3.39904839513647
1.6688762099385
1.60608569984865
1.79660437801103
1.87497304051358
1.39693196529702
1.34250307899702
1.44604651954024
1.4985836431465
1.27786250608575
1.26044785219244
1.3126574366839
1.33743163463567
1.30612561773332
1.27785313884843
1.33967669769118
1.37806719537163
1.37314901615783
1.33473283384652
1.39803835670737
1.45360578787921
1.41635927534587
1.36365418133188
1.38813660845198
1.44269423183187
1.48230701475982
1.427043783534
1.41769922283085
1.46406429171767
1.46821309285515
1.42003729758177
1.4372503371331
1.48506522870804
1.47756933323752
1.42325990534942
1.4165015114471
1.46362651308838
1.46545954251869
1.415168950501
1.62808804630243
1.69774732081038
1.73234352455779
1.66490205476134
1.67506060831714
1.74590567248472
1.77619542178495
1.70302594829848
1.70324643072891
1.77172444384734
2.69304986650777
2.51221584017842
2.62397277597376
2.8013425867471
3.11109719057481
3.0454789884697
3.3457743150058
3.24185305238957
4.60340129702435
4.95608753714056
5.01242749506248
4.66934903933875
6.55524841882208
6.64703914305665
9.1586448767846
8.733043453879
15.6614413943244
15.6392243600781
26.3023271765154
114.916387505196
88.2684316253546
21.0982802580015
21.0746331963448
85.7100056012095
84.7953229300863
20.5409518064729
20.8489053288947
93.7599591265387
94.9474627114116
20.9096887730209
21.0289669667348
98.8485503281321
82.0089330857562
21.5280293997471
23.3404938386391
75.4415123412937
68.3892121638693
20.7728209753577
20.0137949093244
65.6426707949061
60.9902566887639
18.3102830228103
16.840708036028
55.1179142740289
49.3604643329673
14.0840261579918
11.4691144932618
41.4002201971444
36.8780716244678
9.46543406630024
9.79687989605924
45.5422173488315
43.7689594695742
9.44821053701774
9.42815768746926
42.6952481996922
42.9411491560226
9.4797801798298
9.62256711175354
42.3304909596385
43.7511540322723
9.73777034685502
6.95377348917274
37.8528766700362
33.4002417845987
6.88079248798722
6.72230722431641
33.4566844022365
6.05921164840654
6.74138067825682
6.93176399147927
33.3621572792374
27.4249496943638
6.41213040076483
6.33463955186785
23.4703786220304
2.40414060944686
1.15105433321864
1.12295854778743
1.92926976801257
5.41132703599828
20.9369097703679
19.6541582997866
4.06046753280419
5.85323141328283
21.502750015024
29.2663459900147
7.77927885393746
9.11578736315874
30.0885306201633
27.7961128611941
8.07704543733108
7.87792580139543
29.067334416007
34.4506527221667
9.92437973651903
10.0235105636264
35.6443958225523
32.1989091635429
9.2382251479672
6.64754493604721
6.06247763190412
31.6711178110716
30.6279818612124
34.2022356106369
35.4268996104472
8.06796569745078
8.93141143531801
4.00976961876158
3.56724439627881
5.15509287818155
5.79234388198803
2.23942861662694
2.13939329938193
2.21890638682032
2.32109733120876
1.56226637333818
1.50460813527033
1.50705225533406
1.5625446221001
1.33582253913977
1.31211466317248
1.38298180251786
1.41891385620665
1.41516882278423
1.37942364174894
1.45822456523169
1.51369794139471
1.46699950618214
1.4096827548654
1.44611569969433
1.50117700653582
1.54903122263128
1.49668691571792
1.48024190122895
1.53137660750711
1.54175084135674
1.49023429958541
1.44505909872572
1.49543621714204
1.54672671461359
1.4961191793852
1.47165104726133
1.52702848099766
1.50734190592401
1.4604520752028
1.46301037650793
1.51014408993502
1.52756645559742
1.48249697654973
1.46518631280437
1.51815432672237
1.50413468878553
1.45508903973422
1.45496867915687
1.50249670048863
1.53794430922749
1.49014240920636
1.69725457397628
1.76820252243306
1.78373688508983
1.71401870053558
1.73977389520806
1.820156891161
1.80933781630441
1.74082694177539
2.53203264954487
2.71384706741024
2.85850722624813
2.67926530774666
3.10315826497669
3.17233748550705
3.3034029140132
3.43930333722006
3.54287161685299
3.37432070971639
5.3043776430324
5.61487559183444
5.61287167445873
5.29232275844885
6.68859278065852
6.77111410504075
9.30600355563377
8.85051327041835
14.7971080498432
15.2996583279543
25.1348103738565
105.924697221104
82.6350431075564
20.8228957547916
20.8243112271225
83.4583242750977
107.670776733773
24.9178030002104
15.2691105947647
14.6564919941801
14.7734161108603
15.4055459991754
25.059217628088
111.696955165919
86.7526926244551
21.0521683643488
20.8528297307728
92.8527705649871
87.6964882093921
20.420709917314
21.2766725304636
99.2597339687393
106.535318638693
22.4482355286343
21.6001621026076
107.018486675269
99.6134844446873
27.9376803175679
31.5608990169701
101.206771075492
88.8099134266648
26.9115460285276
26.2461614515583
86.5240236631527
77.5312765563525
22.6383115173787
17.0705574539678
63.9097903093112
77.3863577223366
19.1454935512687
15.0368760502528
53.5996532142784
55.2490847253795
13.548398565861
12.3429538702681
51.4946936965588
47.9516724912838
10.6438884054233
9.90012486021066
46.1297013887051
43.9822240123556
9.68996142856949
9.627062606773
42.4256399333078
41.6850412900043
9.58481349853221
6.92826034797418
36.100476030331
36.5504581276133
6.90383619251535
6.78501458349764
32.6800587630279
33.1559159133781
7.37007052713996
9.26143800288697
31.6598482706311
36.7886233813034
9.90415252136988
8.88535614156549
36.7275521768593
37.7340676411416
10.0626717092003
7.93054269426992
28.8086812612846
21.0713584253376
4.92777627211591
5.70930752756647
21.5427952406591
19.3482070901052
3.9898443434068
3.51099097062454
18.4823289287299
25.9555913860669
6.31265924312044
5.73698526566745
21.8901009201625
27.8879934942688
8.48281284712133
5.79249976847178
26.6157212320572
25.794046088388
6.3155660680978
7.01525452572933
30.0668164750584
34.8950952297977
9.25709992456089
9.27083806239536
34.9074635236957
30.4329537107267
8.29800324676862
8.70151353122017
31.765169950683
37.7303152254195
10.784262899615
11.7792618085868
39.9675946020466
37.986215950203
10.9486065297647
12.8382402729174
48.6175150355899
42.8805024540615
44.6057287650047
10.5316963501456
11.6121570232351
14.3904664523663
14.0413545756337
58.5808366337121
53.6986737022661
59.2437567866169
15.0330970035487
16.275844149598
66.6231714185351
64.4724359596697
77.3601351563492
19.4730518898462
17.7034238053047
14.9833163188903
14.5324196928846
13.2887051444893
14.4003507938187
6.01123486655742
5.42154348485792
5.4024684895904
6.01763636331699
2.36254163475136
2.2411788136874
2.36633316635476
2.49993935053008
2.4177052356294
2.30797504473551
1.58897776806382
1.66045766629226
1.64637515855781
1.58122023910254
1.67443256033802
1.75353743598826
1.52848540018778
1.4734048790221
1.52546591848735
1.57563707326429
1.6478866725982
1.60064134610179
1.57562552196425
1.62843884613039
1.63142418709018
1.57941049377403
1.52317708911906
1.57639234037816
1.65736894943113
1.60086077895909
1.55945813259912
1.6147247899841
1.58635608464521
1.53524870136835
1.54503844693566
1.59788693472523
1.6557689975716
1.59734766894894
1.54274378683276
1.59639121848426
1.56953479074466
1.51153794957548
1.49786490259707
1.54798283973107
1.54922722489115
1.50101031655342
1.52352268739662
1.56883570568745
1.55731886545944
1.50318725214473
1.49036592432023
1.54342781655374
1.58040314882628
1.52285972133045
1.52287815693687
1.57253664528322
1.80421183984643
1.72735375719589
1.75099384560636
1.82519272594031
1.86418392882287
1.77673039198262
1.77875208328171
1.8535038161512
2.73922663607295
2.55525574310029
2.73723646951422
2.91937790436576
3.24594927481062
3.16580676457018
3.23183602246192
3.31791330883039
3.43395810008789
3.62084303383359
3.70194294640216
3.50652194060468
5.64964303606162
5.98971885820657
5.95811003532608
5.59245432100071
6.87813931253197
6.93850473920201
9.54976518121247
9.08619069443337
9.43732176821338
9.874265514952
10.2625130029646
9.86197166864361
14.9998712622836
15.6517308091672
25.3680382890664
117.281874361705
91.2220660873953
21.4481075524988
21.424588600319
98.8869981565937
114.927517882859
23.6342200762878
21.8914722486758
115.60544485964
115.72790325787
28.8961335059056
36.5574913413368
149.088962500715
151.301123165618
38.0810301272155
39.0804012594704
135.720430929527
117.779164616178
32.9896259388226
31.8475775425942
115.968945212315
121.712358690871
31.5853650245741
26.8879738126361
109.646152724838
108.386184065832
27.3776189449407
20.5845597045246
79.2550102529695
56.1108347668028
16.6172872658404
15.175809806413
58.2036320198697
53.6713314762658
12.3539292936745
11.1884724383346
51.0251202417355
48.5038051357026
10.4005724533399
8.81488931449542
42.6700565969346
40.9692668750126
8.19747123842361
7.78343080092559
39.909532331244
37.9284148224126
7.59531966458565
9.18514169151069
38.0099618416126
44.3603895773112
10.653293567937
10.7418300146628
46.85515575118
46.8316906308012
10.7480277266189
11.1391948512898
48.1448904252829
49.9362668676154
11.4999608341053
9.66678171606276
38.281678672354
39.871590171121
11.1729369341377
9.41391023344684
30.6115651383907
23.3431548247986
6.07223284377054
7.47174352385537
25.7977040553732
33.8668897670472
11.0599376776875
10.1246475625772
31.5691822504992
27.4748982410976
7.20298329027156
9.34800043004773
35.3430194855469
44.8074543459805
10.3974557699968
10.0179346874244
44.2317703602781
44.3873552168711
10.1003260982624
10.1141370166836
40.1736801668908
35.5523816707769
7.3734323631665
7.11860825163245
33.4615259251167
40.4752011092878
10.3346419775885
10.1858628037775
44.6237108046104
35.7157113357121
9.30458619325717
8.85636866481479
32.3133240674251
35.7551692704079
10.3505439804112
14.8258173151636
46.5977662359769
51.2042074933666
15.3867747719504
14.8733262418538
60.1848280803029
67.9616487202291
17.3408128003592
18.3546251501512
75.3116417766396
79.0985270421029
18.5807499138223
17.319826118822
71.7602173056303
74.7362082342387
91.0996035257878
19.7617635373831
19.928886278587
14.0210705597016
13.7798481403894
5.7120694842763
6.32311441331588
6.15054375805952
5.58039084111089
5.76791580909425
6.25444827431562
2.66660812393034
2.52063872870325
2.41456096083495
2.5246666081276
1.78706271652022
1.6989577788627
1.76411285534032
1.84436093022162
1.9357727446442
1.86291653731462
1.84302846000017
1.91103450790456
1.87308609203104
1.81490259844209
1.63106767627084
1.67718662175813
1.81213351059865
1.75734815533164
1.71228995826258
1.75859615728677
1.73577929534081
1.6780847184051
1.66685634236695
1.72497125115121
1.85318407366735
1.78596084462934
1.69443552964428
1.75879534377644
1.6962055729385
1.63668646695463
1.59531739835458
1.64991433930612
1.72855045560337
1.67215306772808
1.64853557431687
1.72046675347427
1.64571862763485
1.58692183435115
1.54804315181912
1.61118285149571
1.5845855293975
1.53079768634649
1.53340668173142
1.58486375941315
1.60782056104509
1.56005585151213
1.53795706149498
1.59508344179073
1.63091085736544
1.57135696573981
1.55411199826395
1.61471939251634
1.60609880303914
1.55405725689428
1.75740863238254
1.83881419855308
1.86897720421537
1.78882668919899
1.81489954289051
1.90884899479511
1.89974666032566
1.81867629832113
2.5822402055071
2.76725395991088
2.98218311771326
2.79872396061094
2.86125108092009
3.04602033344345
3.39970772083961
3.30173668074878
3.37379575415832
3.47855661714246
3.57333977430378
3.78428220367558
3.87186649491814
3.6507525951263
5.8840518962725
6.26206626618617
6.22198860899652
5.81743340693861
7.11981052976023
7.13211447595158
7.32298906148264
7.40275283280788
7.70848940861324
7.53474122097722
10.6980962101304
10.3397998994221
15.3065706872338
15.9838387182145
25.8113021081057
123.583958261874
96.1096733386244
21.9871201005484
21.9232198233297
105.412272986719
123.815589294863
24.5534502414629
22.2870690162992
122.775693585289
121.858655027162
28.2521330969538
35.2881960460035
154.099902051902
147.787774853344
37.2935658289147
32.6903082531442
119.033619378197
126.581780847635
32.5358055110978
31.5168252311097
126.728185534623
118.361238996318
31.3421070228018
31.6825666707152
119.73770614188
126.832176447156
32.7527432489336
27.1213141776542
112.632345599719
124.771643330465
29.7503542015307
24.5493872663102
91.4776295965206
59.3687486079054
19.009580361535
17.5779834259398
61.4702038652294
56.4805584495232
14.0502313428749
12.2608209075737
49.6596481126136
47.0494038285757
10.7939283873123
9.65708642270616
44.7210228094825
52.5063006573389
10.9640478326419
10.3284848632862
50.1600247922055
48.3183734793001
10.1027259208471
10.0787956516954
47.4448432280652
9.66086835795987
9.02146520608652
9.10334312567228
5.85302207133484
2.514079224519
2.38534441797952
6.84137222697712
10.8936210842419
41.3624421962149
50.8154034775337
11.8708864489718
11.3794889054658
48.5640263199796
46.2318530627893
10.7820179237022
11.1622049664802
46.0222922221035
38.7595315616826
9.33278549105337
12.1809015424746
44.3204928219635
42.7767533348714
11.1141577622014
10.4765211210516
43.0400490819239
44.191577977245
10.2552227626372
7.49869823260204
39.050729547764
37.8063043422933
7.8509316468345
8.45790661891613
37.6617956004518
44.6000629873192
10.4983746111865
10.08118059139
44.2599461724074
44.7382277209645
9.87781835252861
9.74561236934979
4.6314291801856
8.36560340871041
34.8435341953261
34.3529083701862
9.44409655043907
8.72331847797272
9.1516225960965
5.52634372633206
9.00981470388808
36.0198071113559
37.5805608624172
10.5329136903003
9.13111356079196
9.90373918429259
11.8744532428708
48.1498325104771
40.5252489767693
10.3087631854834
13.4643651488886
46.9219245821508
51.9947102270289
16.2579442132363
17.2924658636121
46.7472567414044
47.1021414434661
18.5170276639436
19.1706793702374
46.720920351035
46.7839735196161
19.7988889111769
21.9206720520909
49.1018397229429
53.1122054403341
21.9036244671611
23.6764751375558
61.9225048622473
76.5041562673795
25.7139199859506
28.9863405590191
97.1189117726291
102.130250976551
29.9374543173916
28.9194818541216
93.3415490872406
104.49513379863
121.805854480283
37.5814753422424
34.082401598184
21.3411557167195
21.3932055794843
15.8732898954793
14.7333024542677
10.0153551649101
9.65566717125442
8.79972673930055
9.43153550730324
7.92552045756929
7.36116658152451
5.62558135526304
6.01321508854004
4.4178407463326
4.23504839524385
4.22592572603215
4.39505308647542
4.32600000023321
4.15029474389051
3.99831396477909
4.1818316801457
4.11894886814069
3.90512336929886
4.09515241590641
4.3176172757215
4.5038665524135
4.249819203534
4.20168597832833
4.44754300292715
4.38396015589873
4.12149902393937
3.95001255777854
4.18263919537609
3.83243460807389
3.62804924897895
3.23960721543902
3.41330622257045
2.89945403675065
2.75840099717551
2.43845630051724
2.55080192444083
2.25347740209548
2.1682795057676
2.01507359301442
2.11895488134576
1.91784067581263
1.83527090934197
1.72890233261402
1.81559579695018
1.73041518662651
1.66634416311006
1.63057981615411
1.69841751365319
1.70506573194435
1.64547940001767
1.62525553328245
1.69268374681081
1.6744567117109
1.60522490960941
1.60976162615078
1.66834818199449
1.89793987162292
1.81181854050771
1.86176536117896
1.95496571971847
1.99795909488748
1.89254333729664
1.902677692555
1.99550323261319
2.82158830290559
2.63674188696258
2.92424443256943
3.10932425076059
3.17162635022071
2.98595951124316
3.44923364535952
3.56661659882184
3.6503463782434
3.52522180458308
3.96186204207721
3.72562036325819
3.80602699263323
4.0567716607645
6.49833857305842
6.10032256043283
6.02712123651209
6.45133698684038
6.70439814076632
6.30566466048727
6.21797565450538
6.64915007465573
6.8873653205825
6.48532154046749
6.3753360891492
6.82830123722927
7.76932848553594
8.01032250649999
10.849992753271
11.139979115675
16.4079077219598
15.7048269897787
26.1187768504342
28.9311705026561
136.515391680107
108.057904798377
114.358135427685
23.4868556878163
25.117288076295
133.36962703749
130.576662710769
22.7668181682035
27.9650182524934
129.329242456402
162.747186272015
34.9945943471872
36.9609185631586
153.068743359946
121.566163285849
33.1779027028159
33.9411146486505
129.358379397375
143.019506201044
36.8368415166589
37.2912831211208
139.507870317888
163.430367826703
47.6334652977702
32.7500995383007
147.575203071657
147.236829237457
35.8187480414208
36.2655969578857
114.721294603717
97.6313547203706
27.3312461421167
26.0601362691474
82.1487904733625
60.2026309318489
22.6415330464582
20.3147408744258
64.2823466246277
59.4611520981444
16.3002142841257
14.0229690982221
52.6291017397702
61.9224696155259
15.1890336832624
13.3822813237857
58.35470243795
55.2483710644361
11.9646668330963
12.2134069030451
52.0963231258851
54.620408673305
12.9461657422455
11.2143434486309
41.1552444160864
43.7589525981855
13.0808101809721