/*--------------------------------*- C++ -*----------------------------------*\
| =========                 |                                                 |
| \\      /  F ield         | OpenFOAM: The Open Source CFD Toolbox           |
|  \\    /   O peration     | Version:  2312                                  |
|   \\  /    A nd           | Website:  www.openfoam.com                      |
|    \\/     M anipulation  |                                                 |
\*---------------------------------------------------------------------------*/
FoamFile
{
    version     2.0;
    format      ascii;
    arch        "LSB;label=32;scalar=64";
    class       volScalarField;
    location    "1100";
    object      p;
}
// * * * * * * * * * * * * * * * * * * * * * * * * * * * * * * * * * * * * * //

dimensions      [0 2 -2 0 0 0 0];

internalField   nonuniform List<scalar> 
209453
(
83646.4522469674
83661.6140255996
83683.2996534424
83660.432780572
83645.9648664497
83634.4794864653
83624.5431286411
83612.2671830518
83617.1190787652
83625.1836777766
83624.6395970342
83621.9247579608
83621.9292271244
83632.6200145378
83632.1461358707
83640.8035905798
83644.6495051771
83642.5685792453
83642.0843562127
83654.9408151723
83663.3145643719
83669.3309273402
83654.8572784669
83645.3670576961
83645.6076004416
83655.6303786933
83655.2050204969
83658.6168035654
83665.2195892388
83663.5918899351
83658.8003703226
83662.220166562
83663.4982005478
83662.5326507595
83661.3250814699
83659.6911515577
83665.3518737641
83672.2653678388
83659.8107161077
83659.1280139467
83672.7894199826
83659.9195691107
83654.7080885678
83660.0178409905
83679.3115713606
83621.0652762338
83628.6858897792
83603.7755256469
83575.8920971171
83583.373813818
83599.7640557234
83596.5706386909
83572.2564640854
83661.8664118922
83670.2311796554
83630.0222568141
83620.1523433491
83614.1488594407
83614.3839722345
83614.8956726426
83614.5546975863
83613.5486596674
83614.9311894677
83609.5590912832
83609.4733802602
83603.5525488233
83601.9791644418
83584.2625252426
83599.6829209239
83617.1039554373
83613.1172552373
83631.8514624678
83668.790155487
83663.3920888307
83643.2491361056
83622.3447879489
83626.2086508837
83602.5510108629
83591.2658391243
83598.4590228875
83604.9487470172
83609.351934096
83608.2977152317
83609.0594425986
83611.0659029994
83611.8157163839
83610.3550150426
83612.9147383679
83613.4875599064
83615.910016193
83615.9824120876
83612.7611017869
83613.2540408379
83616.0881105122
83616.3712135877
83625.643291673
83624.6179712926
83634.6417623832
83634.220271941
83645.1939314432
83646.2121903401
83656.9918052239
83656.1018630084
83668.1928271707
83668.4974365383
83664.8464246723
83664.682583703
83677.0624728034
83677.2140614797
83671.1189161917
83670.4686708813
83668.5390893474
83670.9200419957
83671.5089371203
83669.0615757788
83657.840827815
83667.5411769832
83668.776413485
83672.814262126
83690.4274749035
83675.9100781527
83675.7248826167
83684.5280117046
83682.7276361657
83678.8635326162
83679.1136536611
83680.5859836746
83683.0876694858
83682.8353911763
83681.0250873435
83680.8454198666
83679.3012501029
83679.3444280229
83676.8395098834
83675.0225155694
83672.8114823748
83672.3703498859
83660.8302693935
83661.1050059777
83654.1395770778
83652.9760692832
83647.65745145
83648.6300652191
83646.881772222
83646.0663467532
83648.484839226
83655.8852253337
83657.6968206697
83636.1220302134
83632.548288609
83642.6201089662
83607.9914062483
83611.9709700533
83604.5977259994
83601.7857037112
83590.6121330164
83599.7427827056
83610.4812762202
83619.0203794087
83639.1432240044
83613.4605792055
83605.8887451969
83623.8763493657
83610.7414526856
83607.119599765
83608.5852927633
83609.7355497997
83613.0575054037
83611.0174363626
83604.9192034277
83602.912097833
83605.1945412247
83604.6565127675
83604.7709631866
83603.1317002375
83604.2671882604
83604.2935272155
83606.7254106902
83615.4490356971
83601.1993209466
83599.4067613799
83609.7633520511
83603.9411628135
83601.606351006
83602.0680987931
83602.7219692393
83604.4562851881
83604.1497675424
83606.769554397
83606.9008794764
83609.13545319
83609.1888935074
83609.8103111088
83609.7936951617
83610.2525079091
83610.147957324
83607.1548818916
83607.3688191319
83607.532818138
83607.3273832544
83607.6766232273
83607.8705253564
83608.5938482973
83608.4778490019
83609.5879920856
83609.8798155237
83609.9893617373
83609.7808824597
83615.6762348483
83615.5621170609
83625.0356961382
83625.7747352644
83632.8418563838
83633.1279753374
83633.9364112962
83633.5718518294
83643.6138361701
83644.2155568438
83656.212829506
83655.5760558162
83670.1616889629
83670.4101736769
83688.038782984
83687.6975577411
83681.8791335753
83682.5742628876
83693.8425902561
83692.3967961568
83689.8350507244
83691.0000800776
83685.5345375934
83685.7650405848
83684.2477361776
83683.542024199
83686.7729001217
83686.6521375208
83694.0438196393
83694.2209694292
83689.8063058402
83688.8281765909
83685.8285395309
83688.4587706408
83686.3884507774
83679.6155118163
83691.5543646238
83693.1619641739
83691.253640312
83691.8083802558
83691.1041468104
83686.1289100021
83670.6219411021
83669.6275835415
83662.6744623929
83662.8203874293
83654.5625380376
83655.2333545429
83647.6689603207
83646.2968631341
83642.306818975
83643.6426292553
83639.6924273586
83639.423605396
83637.8190311395
83638.2701824802
83636.6698894123
83633.5834431303
83627.0862283091
83629.031987194
83619.7761700561
83620.3771957649
83608.4117122811
83599.2841967037
83603.9348240511
83606.4777476674
83604.7932199273
83603.2528476523
83604.6091350747
83604.0105917793
83603.0608134773
83602.8874112674
83601.9122629516
83601.3429499502
83598.1927215891
83600.0211618238
83602.2297330399
83594.1856201529
83594.1175905969
83598.1050173078
83597.457685441
83596.9037297506
83599.4380675918
83599.4080586387
83601.6957364494
83601.6935085359
83604.1106026261
83604.0059092643
83606.0357769947
83606.2842586153
83603.4499508871
83603.2943525013
83604.5322493488
83604.7576672667
83604.9378569705
83604.6867259667
83605.0005480465
83605.2774243421
83607.1060258617
83606.8197379816
83612.0727670115
83611.9628076288
83621.5207869197
83622.3910023226
83629.1038592796
83629.3624472884
83631.8410009489
83631.5789383926
83642.2902798902
83642.826514321
83643.8047513512
83643.2715680814
83656.340296316
83657.0320378303
83673.5684948553
83673.3336688656
83694.5613471917
83694.6435093723
83712.7890575139
83711.9132225053
83707.3162938898
83708.2466379597
83702.303124324
83701.4775183457
83697.677759393
83698.554497418
83709.4521557746
83709.3368184049
83704.0687254624
83704.1843197073
83699.630798066
83699.0159969799
83695.3939615671
83696.0976054603
83704.9815168971
83704.3635256162
83701.5439188007
83702.1009488203
83698.2773976454
83695.94907311
83693.6393163108
83697.1736017665
83705.2169015583
83705.6881240432
83704.8767448882
83705.1259528725
83695.7119247323
83700.4706010745
83704.4547840656
83705.1803464193
83716.7639367297
83710.6778906408
83708.669685252
83709.2629945185
83712.5349085754
83711.1927733735
83715.3600751168
83714.9864237426
83707.7964250818
83710.8094919302
83708.3644037335
83701.1994198369
83703.5448202724
83708.5970540389
83706.4663475932
83704.8454823859
83702.1681068638
83699.1274884108
83702.3291238991
83691.421932049
83708.0062883501
83701.6911123613
83686.3652936075
83676.2770377033
83668.9735472719
83675.0671815287
83657.8327391744
83655.4181253951
83655.388996957
83655.2368541028
83650.7607541416
83651.2476171627
83639.1334084173
83638.5049978737
83637.1669004249
83638.8976792186
83637.5585890466
83635.7429161233
83633.8029707527
83633.0213356277
83637.034449117
83631.367484796
83631.5156092602
83636.0452104543
83628.1317230071
83627.3509148697
83621.1751495475
83605.4484590632
83611.8895545593
83614.8097312166
83610.3016863948
83599.6795737488
83603.9961244781
83606.4135185109
83603.9872473737
83605.116494706
83600.2212429821
83599.7838097811
83602.0855197101
83603.0283138839
83599.1379377733
83599.0804581297
83598.9767666908
83598.6642240362
83596.6343541178
83596.8368312657
83594.4254329338
83590.7791599673
83594.2129465132
83594.7741138837
83596.863744023
83596.7827184259
83598.7876347194
83598.8546793722
83601.1416552356
83601.1640876161
83597.9250474903
83598.3540068317
83601.3180829255
83601.0147794747
83602.3398885948
83602.4785872833
83602.7994798887
83602.7386196194
83603.376249211
83602.9141341089
83601.7826673528
83602.9626288392
83597.5097011948
83597.9352413575
83601.2603712877
83600.8351199992
83601.0289003868
83601.7059331069
83605.4199974326
83605.5242765094
83615.7497341433
83615.2641633971
83621.0859826541
83620.6857912939
83625.8715462999
83626.1146018345
83636.130492226
83635.424844452
83639.4551128517
83640.0473205342
83654.2379181753
83653.5402284248
83656.1149038549
83656.8173369023
83674.9872414268
83674.7984992485
83699.255894166
83699.1036717513
83723.449873462
83722.8785589056
83718.3681890603
83719.2514866287
83736.7372497394
83736.7244163211
83729.4172641818
83729.4283660592
83722.1051709066
83722.0154708202
83715.4641122003
83715.5279461956
83728.7488430798
83729.1362415881
83721.4352943857
83721.0159337977
83715.7134565794
83715.8866744229
83709.6635206509
83709.7984665085
83720.2942732821
83720.3124300952
83714.1693977923
83714.3400019641
83710.035655648
83710.0436279709
83711.0204394168
83707.3284806781
83698.6283621827
83712.8165616505
83705.0364046604
83690.4387831011
83678.0525873676
83662.1985874128
83637.6659069426
83608.2322610182
83581.4057430169
83552.0198342673
83534.7024271094
83536.3925702087
83566.9601610934
83568.1204798172
83584.7702888791
83582.001013115
83594.3714578737
83594.7380063144
83589.0573301962
83587.3250449173
83594.7513979982
83595.546561054
83592.0538666249
83591.2745480541
83597.0811855851
83596.5610765867
83594.7674252051
83595.6314113388
83595.6456009866
83595.2066183725
83591.3459589138
83592.2155283016
83591.2223525023
83585.849701158
83587.9939569348
83591.6427283586
83592.6612210153
83593.687956443
83595.3833791606
83586.1704155261
83592.1644817491
83593.4426279161
83596.1195973525
83595.8998856637
83594.5200859335
83594.7147916211
83594.7722657984
83594.5399665979
83595.4897057514
83595.1513911283
83594.5675441688
83593.6980946167
83592.4342221038
83589.5621849835
83592.827801455
83591.6214893784
83590.0353810183
83588.5416864405
83600.9897094084
83595.6662697693
83593.090041421
83596.5087906868
83597.6477444912
83599.7805535589
83597.7201709399
83601.7259243532
83602.3854234472
83613.3153568626
83644.9652993293
83642.2620967423
83605.5252667032
83582.6684173338
83556.5461771135
83568.9945789468
83586.3423900089
83590.3598464577
83585.5253810583
83602.889101784
83599.1211706503
83607.1906576808
83610.9058969896
83641.1455908786
83621.9735508269
83612.6749122409
83646.7074441755
83589.414299
83592.4051977797
83584.7454796248
83578.711917273
83570.0614663923
83585.4317261768
83584.3696022024
83559.816957041
83573.1605124294
83585.914717383
83593.6502294418
83589.9815413304
83594.848554626
83596.5379802781
83597.7641171493
83595.3698198131
83599.1831205278
83600.1804019194
83599.464092687
83599.1848745302
83595.9354589905
83597.0978883118
83595.3070878737
83594.4411222936
83571.5376427935
83585.9287962138
83593.4293318471
83603.0887859657
83602.1119895033
83587.8857838109
83594.9190396781
83606.9163545575
83614.9094738424
83627.5928944057
83614.6400877755
83613.6532624753
83614.6007231391
83612.9491821482
83608.9114607384
83609.9136366488
83616.4212261017
83615.7838182843
83623.2398559194
83624.6363202177
83629.4962438855
83628.4282192571
83639.1739028578
83640.2005759231
83649.4731519082
83648.8516559774
83666.6491671865
83666.9939943553
83672.9274664198
83672.6112965434
83698.7357254921
83698.6009986926
83728.3544195839
83728.0808755624
83726.0321751903
83726.488477885
83749.0495339865
83749.5153778423
83744.2338353473
83743.9694139058
83764.5427517865
83765.3815601998
83755.602816878
83754.7685497348
83746.0252494288
83746.6276517074
83737.0838430387
83736.5379328449
83745.324351786
83746.4128995774
83751.764381562
83751.9151383833
83746.7295028602
83746.6119293465
83741.4419899186
83741.6164821804
83736.9264264048
83736.7493804255
83733.30264674
83733.4242653959
83730.1660825975
83730.0671907672
83727.273778302
83727.3920103648
83723.1820025973
83723.3541287161
83723.2283578234
83722.6400768859
83726.5620845724
83727.2619943389
83729.1547951455
83728.1698354261
83731.8191450521
83732.8398296594
83736.2453003535
83735.128518554
83742.0085180613
83742.8732678437
83747.293851846
83745.4172341857
83760.9148963287
83760.6917141091
83757.6317626361
83756.0799799049
83754.6580764495
83751.7922452085
83744.3695156604
83739.9298878018
83733.3522614141
83718.5746512793
83697.0945987186
83669.9619474732
83632.7987408486
83590.5274639758
83560.5415306804
83543.6153659748
83527.1939397802
83511.7895452155
83508.6324911068
83550.8228563895
83554.043571805
83576.638715543
83573.9621808002
83567.0850008224
83568.8426220411
83583.8577022142
83582.2063623304
83579.4338840137
83580.1225698377
83589.4621736978
83589.5146861058
83588.095174159
83588.4490658583
83588.7069461203
83587.0156118691
83585.4410015823
83589.3196207109
83591.6894272043
83589.1815045622
83586.6419730011
83589.0722916222
83591.1879450258
83591.8809834664
83585.4318132322
83592.865991715
83603.4821265214
83632.8637554821
83584.0012686142
83596.5401992638
83599.7616280719
83574.5543738595
83650.8119715263
83627.2154202351
83625.8850707227
83646.4538485732
83633.8430454344
83628.627569153
83621.8770141629
83621.3890208505
83616.8888207588
83617.9765969697
83622.1963023999
83621.1293230724
83631.6779296948
83632.6154819034
83639.9376208419
83639.2068258786
83652.942975536
83653.6315542551
83671.8711366687
83672.0363920899
83691.2889418326
83691.0384565883
83725.0574308188
83725.5427946177
83727.662537342
83727.6142447836
83753.6942278955
83754.8729563959
83754.1920901252
83753.3355225655
83778.4059610833
83779.800278845
83773.0545964955
83771.9187828104
83787.3718812869
83788.6066202508
83796.7620973076
83796.9978265086
83791.2946411738
83791.0949442067
83784.7248023435
83785.0071529652
83778.6511495995
83778.3386914144
83774.2324497308
83774.4351051821
83768.3440606284
83768.2018591133
83761.9033743907
83762.1316874268
83756.2138671641
83756.0110003755
83765.0051537838
83765.2256172162
83760.3601551963
83760.1889903276
83754.1293972185
83754.3408509901
83749.563084745
83749.3564875932
83743.879476185
83744.1888816488
83740.1762888406
83739.9278084681
83735.4479433848
83735.7448396036
83732.169024462
83732.0690496963
83729.5199993609
83729.3274052611
83732.8836405939
83733.0631620019
83729.0811320575
83728.9949921282
83722.7301784812
83722.881642715
83720.1184582362
83720.7926042355
83719.1916951309
83718.2058882161
83717.6277523736
83718.0135067903
83716.3548256658
83719.2740345475
83724.9963130616
83722.9260755731
83716.8071624923
83716.7070363256
83700.0122714314
83707.289013897
83719.8018197522
83720.2602579541
83716.7104426744
83715.0099350014
83703.3462109862
83706.4725258675
83698.3311527977
83694.5428511199
83680.8536598905
83686.8928389609
83671.6660141336
83668.6211969492
83652.2225864506
83650.5460419679
83635.0227127228
83633.8103009754
83638.01227845
83636.7417539063
83639.3500757199
83639.4601766551
83621.9260850883
83621.9017737253
83624.3337571825
83624.4309427356
83624.6278631579
83624.6709972047
83626.2699295729
83625.9525566225
83620.4392733197
83622.7196446969
83634.706339357
83627.9157802155
83622.5854210609
83632.5085877896
83616.8131348111
83613.9257633752
83622.9754254587
83624.4992757983
83619.8586077825
83613.8102093483
83609.2824499652
83620.4199486563
83589.7919770099
83594.8626977513
83603.5703313081
83606.7879022865
83601.2796429936
83595.5223312581
83589.6513597924
83584.5553534925
83579.0186767812
83579.4139997594
83578.6867236955
83582.362276557
83584.6210380689
83575.5772068133
83587.2246216608
83585.2700044322
83590.3571393521
83595.8593125094
83594.8599127176
83595.0448607508
83600.034984701
83596.8162404763
83612.3502348408
83609.6879729395
83616.280600359
83630.0748302634
83631.6542156704
83617.3516992572
83617.4255810482
83618.4592395284
83622.0166066024
83623.3236520721
83611.5272284008
83612.578028754
83612.4516176897
83609.7379240803
83621.8598832831
83623.4386572444
83622.7102784736
83621.5128743163
83648.4568125333
83648.4640788781
83666.9395560458
83667.4469855907
83684.0053451775
83683.0562761232
83702.789610694
83703.5979947204
83715.2226118447
83714.4311189146
83738.6270359817
83740.58670521
83751.3464330558
83749.874988579
83775.4146593786
83777.2304741886
83781.5871366774
83779.8690580601
83800.845428235
83802.3090831928
83811.0576232945
83811.2004343374
83808.975754317
83808.7459506947
83804.3755570972
83804.6940891309
83799.9157869559
83799.5305871398
83811.7150432921
83811.677506573
83808.0144185167
83808.1019194865
83801.486482799
83801.4627634115
83796.0376709012
83795.9809070675
83789.0040094386
83789.1637462409
83784.234808803
83784.1319152173
83777.1815483791
83777.3022987359
83771.7835868803
83771.5915881968
83779.8399557544
83779.9560709239
83773.3041496709
83773.0293554712
83767.7751920732
83767.9714413457
83761.7952288772
83761.4702879186
83756.2908893382
83756.5033200521
83750.878731435
83750.5373334766
83745.9380636118
83746.2581658728
83741.5338257059
83741.1561376061
83737.0487000913
83737.0473349605
83742.0276973742
83741.9851525546
83738.788486647
83738.6495716063
83742.7670538864
83742.8619322975
83739.1171547874
83739.1921595002
83733.4156920618
83732.9147123254
83728.5064529845
83729.8258287552
83728.7980854098
83727.9855393139
83727.9165627014
83727.5055583593
83734.2815429817
83733.1651745081
83734.4132326159
83735.8984456952
83738.365894528
83737.2227996645
83744.8908311416
83745.8971809596
83742.3895865661
83740.3317124035
83738.8259451633
83740.7501737632
83735.9436891196
83735.5884405477
83729.4124503827
83729.1150330252
83724.3962963989
83724.5936515541
83733.1319283105
83731.6630179198
83728.9826024897
83733.7571819414
83727.0048153128
83722.7095636537
83712.0848217029
83715.520064715
83702.1954236145
83697.9854715207
83684.6277390725
83691.2400910236
83676.1047041058
83669.9607835647
83657.0848728054
83666.9116226782
83651.471870296
83652.8199545776
83618.3022626319
83619.091716863
83587.6627931866
83586.5202646948
83605.7611894957
83606.617838549
83616.0989434749
83616.2353984386
83601.4968545028
83601.2829333356
83607.3064831761
83609.094464662
83613.9323032057
83613.4273516953
83615.2560657621
83615.8362597287
83605.2809711921
83600.9053251343
83618.4174957038
83614.4771839011
83606.9826275291
83617.3680616399
83580.3632930156
83594.576533846
83580.2271541107
83574.2756895704
83560.8352331418
83557.753354954
83538.4688877307
83544.8525139578
83495.603681399
83498.8906750052
83464.2299833914
83462.6024429898
83438.1421725765
83437.5709694983
83406.1070185322
83412.2879590916
83487.6381968569
83488.4621625372
83540.8849837929
83538.1895677548
83534.7230279784
83533.2906892554
83563.3371402881
83562.8905263179
83554.3147491795
83559.6477140433
83570.9704031698
83559.0076089327
83579.5795030375
83580.3228881938
83571.87776833
83553.2630181712
83571.1515868838
83571.3905828018
83574.5304899563
83578.5011524852
83588.9553686728
83583.7157890824
83590.7026339093
83596.0023614866
83598.3060140043
83595.6504137307
83601.5524755687
83609.5064558707
83613.5923131926
83604.9278186057
83595.8104912951
83593.2027403872
83600.3593032468
83603.7050434507
83606.8752677876
83604.0501534354
83595.2342943984
83597.6887687016
83593.123507816
83588.7340383564
83582.3919811169
83587.5932249879
83579.4806776885
83577.2315392233
83583.5911555569
83585.2102745903
83587.1908362879
83585.7570113369
83590.0775354253
83590.8653585308
83600.8714532291
83599.4756138711
83605.4044041638
83606.4273363229
83627.7803908811
83627.6436932679
83645.3339614575
83645.1914157279
83646.5292380445
83647.2113518944
83673.3653078109
83672.5046572251
83698.5517525727
83700.5725859597
83722.8588524924
83720.8215155871
83739.8570869098
83741.8058728175
83764.9873210122
83763.1655200247
83784.9322196727
83786.1191660215
83791.2484976837
83791.1702228233
83801.0796240627
83801.0422196805
83805.7811677583
83806.0092792106
83808.607916899
83808.3480241585
83820.4198382584
83819.9187225503
83822.0131480845
83822.4468466449
83819.941458588
83819.6963854608
83816.8917067399
83817.1083640712
83826.5200279848
83825.9237244897
83820.7812100893
83821.1276870311
83817.1832504115
83816.9026916729
83810.5340693344
83810.6879636194
83804.9928938299
83804.9365205347
83798.0004081681
83797.9449757967
83792.6562431989
83792.7313282111
83785.884282136
83785.7050589397
83793.3050143628
83793.2949473432
83787.1876906258
83787.200021308
83780.5605419877
83780.6143288463
83774.9201800879
83774.906766243
83768.6156768259
83768.7440497919
83762.9459222508
83762.8935236958
83757.0039986471
83757.1533555848
83751.8876924668
83751.7075508013
83746.4242511584
83746.8079036807
83752.3402998602
83752.0639738821
83747.2684519841
83747.2130371918
83752.6160382494
83752.5917205546
83749.1399834566
83748.9671272569
83753.2371373233
83753.3330392194
83749.5116239963
83749.5672104003
83743.5065174514
83742.9815900628
83751.4283402632
83751.9872041896
83759.2495312189
83758.7749747596
83751.6163802001
83752.5719669536
83748.4058614685
83746.1016798192
83744.5093555288
83746.7718328655
83741.7385777568
83740.7631070187
83736.1777988348
83735.9782373981
83730.4162007811
83731.1037981088
83720.3610241283
83720.5625353795
83714.7795547149
83719.3074835031
83714.738387502
83707.7359233776
83709.4688807596
83708.5998243283
83697.2352581401
83696.2473315613
83681.9649957497
83691.0720021714
83669.0656708968
83669.9687764555
83670.8319604356
83669.7606741596
83652.7956048708
83662.8717395116
83638.3374698585
83635.1885365017
83595.8009742784
83596.7153560922
83557.6414522132
83559.420959242
83533.7059148551
83531.0189459416
83562.849043825
83564.022326342
83586.5434290563
83586.2001914712
83562.1821121319
83562.9718458342
83584.4715414801
83582.8726583357
83592.9689402091
83587.6058313626
83603.1839138958
83602.1057160311
83592.6770612505
83595.1303407315
83576.7624862677
83581.4918052597
83571.877249142
83580.0310705328
83556.9176442234
83552.8669911397
83520.5382252151
83517.6238896092
83494.9847288137
83492.5030324418
83471.2944493093
83475.5923905201
83420.3292679174
83422.4367905301
83378.7130524549
83379.8656269354
83354.3360618523
83345.0322363009
83313.2848636572
83330.352562275
83323.4897581252
83304.5463488768
83365.6686066586
83362.4703292954
83464.561501844
83465.9789717343
83469.9544937954
83464.271375343
83456.1321493713
83460.529063884
83503.3777012907
83505.5267424032
83546.6282804406
83536.1580744005
83544.030224684
83542.1235436592
83558.912679426
83550.5348381557
83558.9850363673
83558.6642346264
83557.3091268559
83552.5709733844
83541.7128072836
83548.2453702027
83545.9556450541
83547.7809182873
83559.5073857528
83559.0902481678
83574.0817874548
83571.2818730928
83577.98059741
83579.3871444109
83591.3424833614
83587.7149384843
83584.0951883255
83570.3334246311
83558.0462364883
83571.9300779884
83573.3584587327
83573.5162443305
83563.1640574477
83562.0313856826
83565.164208034
83565.1500477691
83567.9557556895
83568.4069224328
83571.2185830479
83570.1716534797
83581.5391494211
83582.2589064324
83597.6481753012
83597.3845938373
83621.0555086982
83620.9864302764
83612.7914794394
83612.9125599505
83644.9490264954
83644.5402677608
83676.6065732008
83677.6316149236
83713.3579651938
83711.8142085115
83726.473631943
83726.2974247806
83722.5843102039
83722.4036378744
83744.0573157681
83744.5464722804
83760.8187129478
83760.6132108217
83777.5876973777
83777.8229969538
83783.0963074992
83781.503048345
83796.0351230514
83797.2096658954
83810.0129228553
83808.9047754231
83815.9447829545
83816.584009346
83822.7886368985
83820.9334471767
83826.9370268671
83828.3696091041
83831.2646638572
83830.1988965593
83828.5686872424
83829.3405256601
83833.82976479
83832.7254063979
83830.7757371588
83831.6427112887
83827.0525880366
83826.4644274759
83822.8731097883
83823.3552453513
83817.3521323754
83817.0555053584
83811.7043402766
83811.9532367488
83805.4073019515
83805.2843128274
83799.890508825
83799.984413931
83806.0323103027
83805.8617786793
83799.7077831059
83799.7867284717
83793.9027562247
83793.8333367422
83787.5287153863
83787.5349701349
83781.6041807671
83781.6155003732
83775.3741305969
83775.3189531171
83769.3300692026
83769.3958926513
83763.4604753097
83763.329472615
83757.6901171717
83757.8093338899
83763.5969197508
83763.453372595
83757.5233049982
83757.8531790079
83763.3374023456
83763.0987490966
83758.0127057654
83757.9264967031
83763.1799941873
83763.1728215813
83759.4831279664
83759.2300261429
83763.1267041168
83763.2801959363
83758.9729921216
83758.8273218379
83766.9213311308
83767.2930856091
83774.0489621
83773.4610353204
83765.1145685772
83764.7280529365
83756.858924817
83757.8279054756
83753.1418018156
83750.7659941168
83748.9490738661
83751.3375431864
83746.0457694101
83744.582266809
83739.0219483593
83739.5461443785
83733.733002992
83733.754966174
83726.1706189177
83724.9492789511
83716.2334954882
83718.0302032297
83705.9622557039
83706.498655303
83694.3404496084
83692.1012208725
83696.5782000213
83694.8587452263
83683.0993861672
83683.556728726
83681.747849597
83682.661457593
83679.8471564362
83678.9741884959
83680.9691927734
83678.4230324012
83662.8485839729
83668.4859147807
83645.5729200085
83650.5262304977
83614.1302778502
83611.6301098214
83564.7865388864
83563.4010155498
83517.4754346926
83521.1476125895
83493.965089769
83489.1726221517
83453.6222946606
83458.023286969
83500.71177008
83498.7003654078
83534.1481983712
83535.1134880807
83508.2229316855
83507.1132422689
83536.4022539996
83537.0156751769
83567.1170388775
83563.9412943551
83581.0908488923
83586.3995454151
83574.8003284136
83560.9366119076
83532.0140669859
83488.0091339813
83442.6373295651
83390.6979774966
83346.9620266798
83323.6784716683
83321.7278734601
83305.3880655988
83303.1293321016
83359.7106176411
83357.5550192504
83419.6194717183
83417.2809440932
83407.2298482236
83406.1426339492
83399.3076662113
83400.2627802174
83393.1389705249
83392.0701085639
83452.7320241862
83454.622393934
83503.0169538223
83503.4921318768
83542.4992371091
83537.0905043167
83536.5180428854
83537.4938854739
83506.4558968693
83503.8863204687
83457.257379205
83456.3037395683
83453.8005525893
83455.5698079532
83500.4397848427
83501.6467194906
83540.7383104398
83533.5065293988
83533.7837182774
83535.3109195512
83510.2807817762
83516.4467188969
83536.5852605403
83537.4378726232
83505.5963021169
83466.3161221307
83467.9586028536
83429.3908500492
83435.7318310347
83370.1888780443
83373.001908174
83415.8980752262
83353.2420913373
83347.1552933276
83347.6110077364
83332.9128482756
83331.2042152229
83315.2419967212
83317.6441453387
83307.704590533
83306.6228772736
83315.8023127414
83316.2020680198
83313.7846916216
83310.8204718462
83309.8395356778
83315.6605930958
83310.9023548501
83307.800156791
83307.2213405985
83313.0373192896
83287.5969918016
83296.4462100009
83296.8388952643
83284.4105411667
83294.5383161022
83299.2448963922
83305.0501771793
83304.1089963505
83312.3948875463
83312.5179567107
83325.0052893818
83325.1074299633
83329.0791919345
83333.298352545
83334.628638916
83330.7499373989
83333.4456521881
83335.3252507608
83365.3459903627
83366.0517023273
83374.9476511198
83374.5366499824
83385.9064867745
83386.089323351
83400.9721430972
83400.4335338282
83416.4173265923
83417.1862105165
83433.9067140342
83432.8770186539
83448.3590640922
83449.5766206186
83463.5834486779
83462.2823472769
83473.4422947216
83474.6125365122
83484.120799453
83483.4272536537
83492.3318054327
83492.1270597913
83505.2585928931
83506.2727667233
83527.5755440963
83525.5888010468
83565.0492684896
83567.2267570469
83626.5458704238
83625.6958835655
83695.7162353211
83695.0896519627
83753.3535819458
83755.0222052632
83787.8936045108
83786.0845536089
83801.964464653
83803.5050102841
83810.8250825958
83809.3395588446
83814.4235831074
83815.9491761645
83818.4848240474
83817.1187458705
83819.4524136618
83820.6297826823
83820.4157211503
83819.4621141121
83818.6785437088
83819.4853558353
83816.678255809
83816.147857829
83813.3025864358
83813.6695559379
83809.2552631977
83808.9539578684
83804.2939785126
83804.5091482857
83799.0205549406
83798.9322725152
83793.3510567002
83793.4010540689
83787.3658251233
83787.343528604
83781.2948416117
83781.2554556953
83775.1089463341
83775.1932288845
83769.2169667922
83769.1378149494
83774.5516988151
83774.6176839524
83768.6257029174
83768.3504963882
83773.5980046487
83773.7798259783
83768.1762620587
83768.3001969357
83773.0774585513
83773.0318902446
83768.7257420716
83769.0390426404
83772.275408097
83772.0654109142
83777.0241290761
83777.3663098925
83779.7724933518
83779.5139941765
83783.477009627
83783.8215067281
83785.0234914461
83784.7155790818
83777.787112081
83778.6558311415
83768.7906506069
83769.0133655283
83761.3570620956
83760.5203085634
83754.0401320151
83755.8889993916
83753.4399009438
83751.9495159406
83747.8543206854
83748.9944800747
83742.1404374903
83741.7620240519
83735.7410115033
83736.121252714
83727.0039457783
83727.3393074138
83716.3799673864
83716.2338854816
83706.4423184676
83705.343386254
83692.5837339138
83693.7135744497
83692.2372865015
83692.1853891701
83688.3802107994
83687.4257011312
83670.7120218177
83672.642661136
83665.9583460463
83662.227222895
83646.9925181594
83650.5818234681
83647.7525057393
83648.4844211517
83627.3017383692
83624.1595944583
83595.7505088449
83602.1179690838
83561.5156242975
83555.5561245063
83518.4323715764
83511.3313156956
83460.4543284106
83466.9801448453
83443.1345923168
83435.4122924416
83399.2275154405
83406.8791384268
83380.9782383342
83375.3651908528
83426.0452302715
83429.6960196141
83471.3313532433
83469.3343444537
83451.9871003497
83450.6710306815
83417.0190239688
83411.6739743168
83386.5557935013
83392.8435779058
83329.1297808246
83326.0113451324