/*--------------------------------*- C++ -*----------------------------------*\
| =========                 |                                                 |
| \\      /  F ield         | OpenFOAM: The Open Source CFD Toolbox           |
|  \\    /   O peration     | Version:  2312                                  |
|   \\  /    A nd           | Website:  www.openfoam.com                      |
|    \\/     M anipulation  |                                                 |
\*---------------------------------------------------------------------------*/
FoamFile
{
    version     2.0;
    format      ascii;
    arch        "LSB;label=32;scalar=64";
    class       volScalarField;
    location    "1300";
    object      k;
}
// * * * * * * * * * * * * * * * * * * * * * * * * * * * * * * * * * * * * * //

dimensions      [0 2 -2 0 0 0 0];

internalField   nonuniform List<scalar> 
209453
(
0.0158047812919935
0.0168271134562362
0.0223831496711419
0.0212621201243551
0.0165573974566798
0.0164654869179837
0.0208299804768119
0.0201788941846799
0.0197706760511638
0.0157907107746643
0.016011426593846
0.0155311518353692
0.0153833474011993
0.015460345231255
0.0155982330207766
0.0161722486633797
0.021126238517456
0.020837699461667
0.0158861295606877
0.0159750581363792
0.022245130307329
0.0223610763134655
0.0162943157404223
0.0156832286744668
0.0155350416816567
0.0156200259881487
0.0157720254582486
0.0165427438685834
0.0236472015615857
0.0235494381247875
0.0161772483981073
0.0167393303155128
0.024721435038311
0.0249206490813698
0.0171701534613964
0.0173113973095724
0.0253211497878613
0.0238006415349237
0.0169741303666501
0.017146492404389
0.0234349017003628
0.0226893810102002
0.0171520260781779
0.0169902974415522
0.0210299866051485
0.0196511022694682
0.0165794944343344
0.0160329653410568
0.018625540812194
0.0171719303397707
0.0155530675969569
0.0152644651938819
0.0163347274650283
0.0157512195632417
0.0153141786976948
0.0150262950220493
0.0150622857004025
0.0150494551035257
0.0150148270243538
0.0150111348613275
0.0150081622167874
0.0150231936926031
0.0150384149719848
0.0150745633930753
0.0150476816510599
0.0152259552242904
0.016341577141209
0.016391609423846
0.0152584602380142
0.0150607504370716
0.0150872171103757
0.0156036962974197
0.0157018221293477
0.0152726564766451
0.015290493560647
0.015025262634132
0.01502649273801
0.0155448827806123
0.0171624395513769
0.0169934075509761
0.0154243525311672
0.0151092513979611
0.0151671200475588
0.0151829779536653
0.0151177767628666
0.0154491717343173
0.0156441024198479
0.0156660721576523
0.015465769655136
0.0153237875460655
0.0154462276615332
0.01520392289429
0.0151313521374816
0.0150871743658603
0.0151274432566977
0.0152115602845626
0.0151446673000634
0.0152011856602269
0.0152674385516729
0.0153159860793115
0.0152606835305715
0.0153294099182828
0.0153915943702391
0.0155301182768151
0.0154187518938515
0.0157804116346597
0.0160059609332127
0.0163354776717539
0.0161720779700442
0.0173925707915161
0.0262358199220098
0.0263033478079678
0.0176859956761812
0.017800511007031
0.0267311762956958
0.0258509112561904
0.0174971047316629
0.0177582516479125
0.0267369379989648
0.0276189384393203
0.01778267528398
0.0178457526797844
0.0273452079123143
0.0278071406504348
0.0177390010624949
0.0177962029304707
0.0280182646340289
0.0307061691934679
0.0193219009890601
0.018895442682885
0.0297794481458648
0.0290371997276312
0.0183290657967058
0.0185403653720322
0.0307752385869465
0.0299240087873195
0.0178333200775349
0.017406728412748
0.0269023599306792
0.0246795716930724
0.0172490301557231
0.0168038671185003
0.0238090641398983
0.0221856751809368
0.0166956303141244
0.0165816403083184
0.0207670517199589
0.0195442646068603
0.0163203775959163
0.016247145723625
0.0194023388653194
0.0184879178220232
0.0160178438558721
0.0155545936759584
0.0172471411471307
0.0164286444495458
0.0152819535964312
0.0150548263607867
0.0150201022068306
0.0153218679659374
0.0158280089379309
0.0158364269260077
0.0152869895605587
0.0150116266754028
0.0150342870634248
0.0150180217570646
0.01500787735434
0.0150132654027765
0.0150342535798512
0.0150387137454916
0.0151489694358318
0.015095342217493
0.0151871089544028
0.0164385922258389
0.0164407597734335
0.0151168219000091
0.0150163989160514
0.0150045143256687
0.0152883782822175
0.0158302091701237
0.0159096350078536
0.0153437155556169
0.0150013375991952
0.0150126202455972
0.0150085866871085
0.0150047220110193
0.0150025633473349
0.0150049988620932
0.0150085910446325
0.0150037972056347
0.0150053432480261
0.0150157676459416
0.0150105840399805
0.0150050235251912
0.0150033217780332
0.0150043921618417
0.0150016793838365
0.0150013712289685
0.0150032596091937
0.0150043966426695
0.0150087973859665
0.0150061175064173
0.0150074631733203
0.0150168279755573
0.0150631035323959
0.015032714558912
0.0150198215268808
0.015029335618122
0.0150757564683324
0.0150561381613895
0.0150821922593071
0.0150998637903215
0.0151327162674268
0.0151178736678447
0.0151572329600244
0.0151923809015683
0.0152353936020684
0.0151998040280769
0.0152431729461511
0.0152812210367667
0.0153341532288217
0.0152910360391962
0.0153448001777985
0.0153873505043034
0.015668462598436
0.0155512904003802
0.0156318651474711
0.0157303631518252
0.01638197035425
0.0162302252141218
0.0162310835402413
0.0163742862283289
0.0176259034287119
0.0177200549322823
0.0180755220346483
0.0177931934651491
0.0177336728560736
0.0179618103335707
0.0192943311863654
0.0321940620045477
0.0312298150113479
0.0189181964864077
0.0184010027390685
0.0308693968908325
0.032381381682718
0.0185796890266112
0.0202445480075864
0.034448651070621
0.0342244729245942
0.0196437725732054
0.0184340916560938
0.0310387903421671
0.0280341982067829
0.0173043690086519
0.0169415783771888
0.0256635779489368
0.0253272030601994
0.0164366017822774
0.0163866238715584
0.0236291316006458
0.0221421050729526
0.0163742061571357
0.0163753747900339
0.0207218878817086
0.0211356789837752
0.0164336933299889
0.0163605056858594
0.0194959551096364
0.0192716602233779
0.0160934764549217
0.0157615324514035
0.0184038520699714
0.0172328673387861
0.0154241846729352
0.0152511700944103
0.0172105473534366
0.017415179061615
0.0153793583212104
0.0151596505188638
0.0165732348769605
0.0166609608336643
0.0151422850800718
0.0150112404123779
0.0150038407383844
0.0153738830045952
0.0159613322782099
0.0159023033070165
0.0153415417652238
0.0150023082345149
0.0150088727548685
0.0150059652020203
0.0150026313365591
0.0150025948270409
0.0150062399116096
0.0150063922369354
0.015002459409604
0.0150024456990122
0.0150065119304271
0.0150068052157047
0.0150017139181276
0.0150009448012012
0.0150008521965663
0.0150046592148603
0.0150051491273925
0.0150150834795808
0.0150127818345219
0.0150307003056651
0.0150398885748465
0.0150868969688841
0.0150688931376247
0.0150939735147822
0.0151069256055176
0.0151363294997224
0.0151273047212036
0.0151144127096788
0.0151249419800318
0.0151585468887736
0.0151487183823669
0.015154638612687
0.0151692899110529
0.0152068661384221
0.0151912611295228
0.0152285922681012
0.015245224838026
0.0152820784709112
0.0152657899241661
0.0152856195292219
0.0153023489422913
0.0154080554690453
0.0153665862899656
0.0153746510394072
0.0154173430025237
0.0156996996500877
0.0155879057704313
0.0156270669712169
0.0157329131283835
0.0157849080493913
0.0156968504160472
0.0162988584056444
0.0164421634918029
0.0164316694625881
0.0162890070197489
0.0164810975547726
0.0165949449537986
0.0178455227483779
0.0180997113659229
0.0194828985336695
0.0355347738120408
0.033533855575113
0.019177059984259
0.0199679404446307
0.0207775819010522
0.0382773340304993
0.0355866959633203
0.0340207065840222
0.0190955549291278
0.0197516613853146
0.0360601121682557
0.0386493049352764
0.0429877677174959
0.0215363443190882
0.0204075778675091
0.0193023868546733
0.0188116660259705
0.0188449298603294
0.0193091810926776
0.0204972610542514
0.0214609217746481
0.0457218879275358
0.0410251974299616
0.0432288195493461
0.0205658802719944
0.0207416909071811
0.0397993913016801
0.0397165493478415
0.0207805268608645
0.0207092205600593
0.0366090475874841
0.020446683594483
0.0180812311575205
0.02046424792957
0.0403045933316051
0.0351318569783517
0.0201557707063677
0.0195696061005544
0.0326976781425462
0.0295540248527143
0.0175406443488315
0.0166030761416967
0.027292777423974
0.0280710752935142
0.0165672392898619
0.0164843318400925
0.0260431802462203
0.0242808003476323
0.0164563133669637
0.016449661358716
0.022756443889241
0.0234890293390629
0.0165525306739762
0.0165794924372989
0.0213925514851111
0.0205310839804038
0.0164123086420974
0.0160192860192853
0.0197792057206255
0.0189778213276846
0.0158646074069475
0.0158741374709767
0.0196711101292212
0.0181593235756907
0.0154652292702792
0.0156208861555282
0.0185623192514423
0.0186799871256946
0.0154690902790114
0.0153448680520031
0.0175316156143091
0.017324373586598
0.0151401834831088
0.0150692571446766
0.0165555935893062
0.0165525963008305
0.0150712084117103
0.0150132118825153
0.0158998325335707
0.0153411552520148
0.0150033663727974
0.0150038600604574
0.0150084532391205
0.0150072097408837
0.0150026318461409
0.0150023984510538
0.0150075940654784
0.0150079449301572
0.0150022065667442
0.0150016484440895
0.0150126036197912
0.0150063693638137
0.0150049127091094
0.015000236833852
0.0150000533000319
0.0150057507508454
0.0150043031124347
0.0150224529979372
0.0150379792683742
0.015078560975268
0.0150528057794679
0.0150159390312393
0.0150226145082787
0.0150768649005825
0.0150479560433692
0.015102056417128
0.0151408540419615
0.0151669052200006
0.0151326992432048
0.0151734370578855
0.0152059660101778
0.0151435546671725
0.0151312514685989
0.0151671464834337
0.0151790654691059
0.0151697267379717
0.0151614014079054
0.0151953995036146
0.015203920898244
0.0151929909926036
0.0151829380696292
0.0152174857531625
0.015227996368705
0.0152621868962644
0.0152514442447415
0.0152700441599533
0.0152818023404613
0.0153013331054907
0.0152844143127788
0.0153041888713351
0.0153225073566083
0.0153234194996495
0.0153052593699811
0.0153892327835705
0.0154295056038067
0.0154402749476173
0.0153997070478825
0.0154229272310732
0.015463998009253
0.0157593901566386
0.015660026634791
0.0157800562886855
0.0158416858766928
0.0165289327949105
0.0163881854664215
0.0166152429768671
0.0167029890136268
0.0172097895053738
0.0171266655749485
0.0186173986989435
0.0183503839462388
0.0171529625668799
0.0168517429670743
0.0163391256058954
0.0158362043575159
0.0157258254915199
0.0157295153491711
0.0156757711420963
0.0156656287000953
0.0156312911648247
0.0157452559033393
0.015730700325376
0.0162976044139489
0.016862528605214
0.026847361497717
0.0238095546113925
0.0164500581861704
0.0158104965244929
0.0218201441302539
0.0201161894735305
0.0156096080055036
0.0153210546865994
0.0193235320463788
0.0182406830458416
0.015220986967435
0.0152248583953545
0.0182248019509474
0.0173169807079241
0.0151433974559456
0.0153587736765967
0.0175243853130835
0.0166620243681543
0.0151468211715865
0.0150111892207312
0.0150055268106244
0.0153728569708486
0.0159609649912473
0.0159108071963839
0.0150130673798494
0.0150018373651065
0.0153425004516215
0.0152870849184659
0.0158055490736713
0.015015290305606
0.015002340382419
0.0150034175569575
0.0150085856097776
0.0150069559842415
0.0150030489578606
0.0150043855727821
0.0150095600174742
0.0150128069416306
0.0150588704106022
0.0150553157790753
0.0151641711647131
0.0165770343998924
0.0164011335807101
0.0150995560498332
0.015158195854845
0.01638512969362
0.0158073937691792
0.0152852767187264
0.0150065761693772
0.0150281670116351
0.0150147126124683
0.0150046554454387
0.01500970921389
0.0150329073526454
0.0150441107401195
0.015009119142047
0.0150270163776229
0.0153128721946587
0.0157399402059413
0.0150625482763397
0.015280596121503
0.0163156910038476
0.0162936739812562
0.0162772434160637
0.0151432662456126
0.0152525649674878
0.0150607313176139
0.015044077697237
0.0150190795048473
0.0150270028718133
0.0152725217217596
0.01529046686149
0.0155948247928739
0.0156530509797524
0.015592565229245
0.0154124810462696
0.016873731702277
0.0169833450800178
0.0171594847085496
0.0155444719644271
0.0159815319299176
0.018568845342292
0.0182579493130948
0.0179215591052947
0.0157002274366662
0.0158416779550843
0.015636283055712
0.0154204122132259
0.0151318231681006
0.0152000544826526
0.0152267925317172
0.0151505572174839
0.0153082957275181
0.0154450870239906
0.0156581434970893
0.0154367127387349
0.0156966257979785
0.0159197802258103
0.0189690193917469
0.0186178702152605
0.0195676283753273
0.015736462532854
0.0159895393230376
0.0199251020923025
0.0205803522694946
0.0163907995606823
0.0164708028046567
0.020994003897717
0.0208357120901127
0.0205973222762845
0.0158018363222037
0.0161212102975838
0.0155671453791015
0.0154197927892397
0.0152215995892281
0.015277004195437
0.0153264916263096
0.0152745757958904
0.0152149768336794
0.0152480245244492
0.0152903939848033
0.0152559394874049
0.0152025270200334
0.015214786850871
0.0152510331618268
0.0152385936011779
0.0152299413093096
0.0152389779257298
0.0152736943011918
0.0152640588124685
0.0152829301455198
0.0152937932623519
0.0152817200711251
0.0152699198153488
0.0152897604438522
0.0153035628324977
0.0153033759254949
0.0152896676566412
0.0153098353191592
0.0153265522921502
0.0153449804863287
0.0153242809599077
0.0153252373138562
0.0153458236818455
0.0154507347952611
0.0154108939644372
0.0154228703068707
0.0154582361366161
0.0154722117032882
0.0154385633259956
0.0154506352918443
0.0154850399760765
0.0154857905666579
0.0154515760167548
0.0156800246051883
0.0157639902310613
0.0157885590127491
0.0157041538663575
0.0158106215738269
0.015866921622225
0.0158720632882504
0.0158328414816049
0.0159156701438345
0.0158760390130629
0.0158496654444591
0.0157937622486549
0.015790054624985
0.0158485537052306
0.0157677660271225
0.0156776238113519
0.0156671511697348
0.0157562837724537
0.0154715318817032
0.0154350524820464
0.0154349043721786
0.015471272050549
0.0154857043471213
0.0155217495195744
0.0155382499177809
0.0155472441473753
0.0155471089371153
0.0155615732693756
0.0155618395308248
0.0155635923563482
0.0155631207136586
0.015571653426426
0.015569955521531
0.0155869153776528
0.0156098966400044
0.015612870506933
0.0156728345086015
0.0158128007483451
0.0159010755428659
0.0154450009050324
0.0154716961434727
0.0161892973556805
0.0237850654354424
0.0220997114233964
0.0159360074577225
0.0155757909068832
0.0205821811109054
0.0205526622877202
0.0157766855884653
0.0153605702763476
0.0192930789539035
0.0200037089585796
0.0156791276091253
0.0154758593083384
0.0186406505984462
0.0185121820358399
0.0155234267860234
0.0153750024387538
0.0180440039649631
0.0180753805266006
0.015574963584097
0.0153234645792041
0.0171242186474549
0.017203900673617
0.0154687837742068
0.0157221688074552
0.018209799464296
0.0199873836092738
0.0163434977114633
0.0161649706908464
0.0192465615628256
0.0195369480695404
0.0165618461246661
0.0165846378409676
0.0201894346286378
0.0214808403692961
0.0168784547789431
0.0167045631595791
0.0220790184766333
0.0220452252636484
0.0219981832926345
0.0158653375297126
0.0162155139036077
0.0156388476253936
0.0154915694281022
0.0155890515791689
0.015736550215534
0.0153879527173095
0.015333976724869
0.0154088513423901
0.0154713973191253
0.0153350564350194
0.0152995686566903
0.0153446913575297
0.0153776856359793
0.0152861768619844
0.015273998453264
0.015293314007726
0.0153064097417873
0.0152937819604595
0.0152829213425815
0.0153033588008852
0.0153164777504583
0.0153162834645087
0.0153031897770334
0.0153242617245488
0.0153407717412352
0.0153271744611749
0.0153102473375009
0.0153211168258203
0.0153354792692874
0.0153482598400929
0.0153350614031547
0.0153344415483127
0.0153473840089936
0.0153472628670783
0.0153343055502359
0.0153483614976834
0.0153648284041169
0.015365287655454
0.0153486187644243
0.0153494692702252
0.015365961185854
0.0153658309484155
0.015349310112233
0.0154326030042898
0.0154656172412701
0.015477119807217
0.0154462158953311
0.0154557116674524
0.0154876406326575
0.015500483876073
0.0154678249064559
0.01546931885932
0.0155017602274901
0.01577371313879
0.0156953211454504
0.0157309479513475
0.0158117171867056
0.0158907828271246
0.0158352779189102
0.0159031803016869
0.015926779777159
0.0162622436073588
0.0162730034834628
0.016308417175385
0.016298665688468
0.0167790421688092
0.0167004093255997
0.0172305769591873
0.017306864269706
0.0189909158503075
0.0185880617503674
0.0208908507652307
0.0447415992016088
0.04085520265124
0.0203523207714626
0.0204727789027659
0.0429303503168291
0.0451715604995331
0.0204524558369263
0.0207329577930769
0.0430946659443703
0.0436068547538991
0.0208273753379136
0.0209029091093734
0.048765125152687
0.044126512544153
0.021528233205196
0.0223771899417872
0.043429745533192
0.0379610059397857
0.0217036306357163
0.0214941194919106
0.0375268313063938
0.0350394505057806
0.0208190401231545
0.0203693717397329
0.0342762553585501
0.0366733549685076
0.0193382955743162
0.0180943198201168
0.03286481246546
0.0303218136594217
0.0170750310901662
0.0168931712595917
0.0330970959319486
0.0301181893122142
0.0166735639432869
0.016606575567174
0.0274753530584819
0.0252854577657111
0.0165664746446804
0.0165723699723499
0.024261678560387
0.0228046701547445
0.0165569069941338
0.0161627386551428
0.0216937260962778
0.0205092591494255
0.0161126563767868
0.016058706465773
0.0204443097723318
0.0159894206753016
0.0161027745103072
0.016162485835062
0.0218311756824388
0.0227399744969592
0.0161456705087759
0.0160511895390177
0.0202822415863771
0.0153285177098642
0.0151296367866018
0.0151343066250274
0.0152868665453204
0.0159374559703179
0.0198891747349538
0.0191134775319001
0.0156808804914439
0.0160322844411685
0.0194297603163536
0.020412634106093
0.0164211118833179
0.0167966693534556
0.0211232383795628
0.0211287198918654
0.0166113354193196
0.0166571580976308
0.0217146786313803
0.0224658267843317
0.0170417370146623
0.0170281576726846
0.0231015786977609
0.0234128821974157
0.0169002374100294
0.016260833545503
0.0159073216745454
0.0227985349588043
0.0232476710028755
0.024360751715133
0.0239086010304135
0.0165018270955131
0.0169711302139249
0.0159410522870632
0.0157491413516828
0.0161477526288423
0.0164222893762034
0.0155841873849686
0.0155159959245525
0.0155450689373769
0.0156100426574701
0.0153993296352506
0.0153665550723377
0.0153649615733925
0.0153967982059826
0.0153064180084189
0.0152932443044116
0.01531419289764
0.0153294070843298
0.015329097139889
0.0153140674508008
0.0153357812436402
0.0153540776291276
0.0153413186776932
0.015324698250447
0.0153362475583088
0.0153502387888723
0.015363766650618
0.0153510662751295
0.0153502054141169
0.0153628727089249
0.0153629704420987
0.015350330862536
0.0153354079526236
0.0153485392062943
0.0153632305505884
0.0153506532637091
0.0153499767752571
0.0153626569834637
0.0153615286338349
0.0153491679553395
0.0153490184368622
0.0153613855393234
0.0153784968561586
0.0153629181027556
0.0153633965982065
0.0153792964860242
0.015379766121784
0.0153640625137648
0.0153639230776135
0.0153796270800783
0.0153936465583662
0.0153777596308161
0.0154582462126087
0.0154886666945107
0.0155030543987565
0.0154710989037059
0.0154833526872889
0.0155161519693329
0.0155178863284292
0.0154853675738688
0.0157079015345477
0.0157845756242448
0.015834983319342
0.0157539158545964
0.0158597559407823
0.0159162798085387
0.0159582877270652
0.0159376351095108
0.0159741864678584
0.0159878071276347
0.0164761516830856
0.0164748341014802
0.0164968758684704
0.0164931301454895
0.0168570801961029
0.0167882905129171
0.017327069769935
0.0173953152405562
0.0188458752258492
0.0185893724626573
0.0207453506924821
0.0475641970060343
0.0429511714527439
0.0203491362930367
0.0204098715860157
0.0463011368633713
0.0518134650784714
0.0207762717923133
0.0186512769030078
0.018871752245762
0.0189524614913604
0.0187441143153035
0.0208686611020699
0.0569738803821539
0.0502449137505958
0.0205176344580824
0.0207138669534392
0.0542671262004722
0.0493159637464183
0.020481426568416
0.0209222123907497
0.0479668477055476
0.0538570407094789
0.0213982393006159
0.0211515700064409
0.0550300796121229
0.0504114268291979
0.0239043917946675
0.0251894250733702
0.0486123140538103
0.0415750564322633
0.0235627345398546
0.0233913999004528
0.0412547693251211
0.0384771838322011
0.0221646487991822
0.0204622907553007
0.0370692453730384
0.0432371826938354
0.021136548077179
0.0197103358342775
0.040463645834079
0.0449713029728205
0.0189650933902148
0.0183293372418975
0.040454924653478
0.0364649666169738
0.0173775439534675
0.0169616126997674
0.0339390404732098
0.0310325204017404
0.0167964309234498
0.0166964185369488
0.0284684052656757
0.0261639704527197
0.0166157020231079
0.0162396215675456
0.0244420177314703
0.0229174193438681
0.0161921449121693
0.0162060252992302
0.0230209307922844
0.024260701527578
0.0164372946027464
0.0172906719451135
0.0257037242995108
0.0273733320876236
0.0175710629761191
0.0174069615323148
0.0281548966995043
0.0301939937128427
0.0178915532386404
0.0173568465405032
0.0298186622751706
0.0259246687249125
0.0166492841530208
0.0170571279526388
0.0256927641908321
0.0238426016994382
0.0162330949136502
0.0159970835000514
0.0221044424425445
0.0241993362213721
0.0165854887060072
0.0162754147802983
0.0216277289318487
0.0221132813559913
0.0168610245303129
0.0161227448423619
0.0207023210819027
0.0200648528964033
0.0161556958117268
0.0163403514664723
0.0209187498956281
0.021809723480391
0.0167730509573429
0.0168877090035269
0.0228809888685116
0.022729182391929
0.0167358474536079
0.016933389366927
0.0233674395141786
0.0244065373945885
0.017315116814116
0.0175525230017303
0.0248782462255194
0.0247786015423924
0.0174294799058118
0.017960955528458
0.0263575815176925
0.0256519761154238
0.025207505240571
0.0171486163878021
0.0176987469371508
0.0183641161372121
0.0179114320339186
0.0268406799738663
0.0271575892895151
0.027975169818144
0.018474639882039
0.0187924945757917
0.0300480024369575
0.0292390129342503
0.0293363917738552
0.0189586436088408
0.0191193014865645
0.0185226923344198
0.0180690134789991
0.0178095364280848
0.0183821931868369
0.0165062495210009
0.0162468065883727
0.0162310410113981
0.0164956043239672
0.0156223766929565
0.0155514774899216
0.0155860364405757
0.0156549589923722
0.0156311981539325
0.0155710609782384
0.015390058482651
0.0154233447298808
0.0154166397638431
0.0153856086953388
0.0154062708643185
0.0154374587550177
0.0153548935331025
0.0153362971207302
0.0153484897856976
0.0153641655955719
0.0153783901107767
0.0153641847448386
0.0153630512187496
0.0153772488877347
0.0153766111496921
0.0153625724295165
0.015351255867083
0.0153640116324366
0.0153799156391123
0.0153676485119125
0.0153670153767142
0.0153792217741895
0.0153780211064266
0.0153658926885875
0.015366105717497
0.0153782183954444
0.0153939165386298
0.0153814591807652
0.0153654409616059
0.0153783406345796
0.0153773597298606
0.015364342084496
0.0153633335607718
0.0153759746731738
0.0153757783130227
0.0153631598145053
0.0153767475660918
0.015392407685745
0.0153935489188123
0.0153774205225388
0.0153778974437649
0.0153938425461191
0.0154080787247177
0.0153915447486691
0.0153913920568743
0.0154077928593046
0.0155001947340707
0.0154698174209669
0.0154858470338599
0.0155183239407361
0.0155318785681978
0.015498407937701
0.0155009156715732
0.0155340752988527
0.0157961144446228
0.0157198987681458
0.015775716771113
0.0158580626507424
0.0159422526898397
0.0158841409539522
0.0159085328506837
0.0159682605654107
0.0160168367000126
0.0160034464681939
0.0160329744702753
0.0160461300628403
0.0166006418788298
0.0166128421486585
0.0166268616485209
0.0166045146030757
0.0169400787308963
0.0168821163514253
0.0174427663259816
0.0175067669602371
0.0176393151372669
0.0175746424699838
0.0177187311770335
0.0177838743469454
0.0190559314679107
0.0188602811889928
0.0209960552355342
0.0631900810087096
0.0550010373484906
0.020660579469195
0.0209956671720402
0.0600697537050912
0.0609592029561394
0.0219231321532877
0.0212994904547972
0.0612706311614283
0.0577962304102465
0.0242858658082578
0.0265441647717556
0.0614434045043515
0.0556051022106828
0.0269148800893644
0.0271732431777747
0.0524371372415014
0.0452228431050982
0.0250492672571792
0.024741183255998
0.0445356748600266
0.0484132149961713
0.0246848547957195
0.0233781547281639
0.0480474228352821
0.0520200316129161
0.0235325275600165
0.021591638481312
0.0495469518401443
0.0445387392396089
0.0202389172656644
0.0197617263739658
0.0499149829483281
0.0448208579612917
0.0180807202779937
0.0176019441147165
0.0408575003051654
0.0372252448373016
0.0172376844080087
0.017030563642479
0.0347330524855164
0.0317253109539119
0.0167994225193841
0.0166297530014092
0.0290542642680672
0.0266094867485232
0.0165285499135361
0.0170829366209039
0.0259855392235541
0.0268286977185815
0.0175980985341062
0.0176879557669285
0.0284759188348718
0.0307518834250984
0.0177850070627438
0.0179661766180943
0.0334195511317971
0.0363907943760084
0.0181459307509574
0.0178526888720743
0.0312345261095999
0.0339002568418539
0.0184603440833909
0.0179149075453459
0.0331115087145298
0.0285329747842355
0.0170650592167422
0.0178766529484502
0.0288580065219384
0.0313466660454609
0.0190640636159529
0.0185576364347608
0.0298915327525765
0.0268488160480388
0.0170036601918045
0.0174130253372936
0.0261309382084722
0.028586939575003
0.0175208954583433
0.0173409970688062
0.0264780939758884
0.024727594889347
0.0172424126143697
0.0171677536623304
0.023107933933358
0.0219105053427134
0.0164742553060479
0.0164041775846627
0.0215951721038665
0.0226998531395174
0.0170326649232661
0.0171202057905346
0.0249676480979508
0.0245740137036972
0.0170072020657371
0.0170003247422212
0.0244670526866377
0.0252842278743329
0.0174853019764869
0.018482429528363
0.0273945570700283
0.0270122993736956
0.0185065923657894
0.0184122559577916
0.0276278387720808
0.0281521857672742
0.0188875965975841
0.0191575912610831
0.0306953984561758
0.0332293448696978
0.0192725471619288
0.0190909379983049
0.0323749988919789
0.0314819035337982
0.032167137733108
0.0190750055732505
0.0196333259831084
0.0183092623340448
0.0179639871219299
0.0163309164409544
0.0165833545799897
0.0165302158425079
0.016290245240824
0.0163324666131204
0.0165380420846549
0.0156878183874223
0.0156200901626847
0.0155936489428415
0.0156482759415941
0.0154493011102362
0.0154143602683798
0.0154272247687422
0.0154576427587144
0.0154724012515003
0.015443957849604
0.0154354846044795
0.015461254487398
0.0154492683728126
0.0154245488230017
0.0153640554920061
0.0153784507903802
0.0153956189638108
0.0153818291005117
0.0153815078903091
0.0153950095944701
0.0153938012268201
0.0153801818757819
0.0153791295297916
0.0153925393165595
0.0154095100356055
0.015395772046633
0.0153839761207776
0.0153966344565623
0.0153953416170611
0.0153827851877731
0.0153812404152871
0.0153936788480097
0.0154098654437314
0.0153967202206208
0.0153967024829699
0.0154100146769689
0.0153937574428622
0.0153801004919793
0.0153785050410015
0.0153922800071374
0.0153906079839664
0.0153773124012467
0.0153771152367417
0.0153903377771273
0.015406463952533
0.0153903869082517
0.0153912350777716
0.015407944573746
0.0154226482493334
0.0154053857309846
0.0154055274038047
0.0154226366454685
0.0154222504732839
0.0154053546879053
0.0154816228000336
0.0155119882075043
0.0155337920966657
0.0155007937602151
0.0155138269941945
0.0155479946775604
0.0155506869087144
0.0155168603227727
0.0157322961424988
0.0158081956693954
0.0158811305238706
0.0157976659221655
0.0158195879889135
0.0159040396148302
0.0159943368978362
0.0159328369812017
0.0159570976336082
0.0160204722659496
0.0160751984304415
0.0160617022093504
0.0160911115616978
0.016104777395778
0.0166923609740146
0.0167252961998704
0.0167356035694642
0.016691734800016
0.0170287519343765
0.0169814601928412
0.0170804846940075
0.0171220712915068
0.0172174388325497
0.0171856303231454
0.0178711336312006
0.0179332570946677
0.0191742126658098
0.0189928209081556
0.0211460467056083
0.0702775272322527
0.060415497995801
0.0208307025707626
0.0212183542543716
0.0669358609777097
0.0695200600304789
0.0223667297586811
0.0214901136867475
0.0682609208956879
0.0663879212372404
0.024074975763218
0.0262269424179765
0.0709375491818013
0.0621253761984054
0.0267328764673258
0.0250760883946773
0.0514298806432486
0.0468738731820344
0.0249630962629379
0.0246734025689224
0.0459179972422092
0.0492617836602661
0.0246643520327939
0.0248112899732016
0.054638428483467
0.0617005123143065
0.0252151593402337
0.0234940754433323
0.0564545844547942
0.0630962903538443
0.0243983029416772
0.022801395649839
0.0608648979882975
0.0499502327933753
0.0209578670937263
0.0209084067894299
0.05543199161027
0.0492061006994948
0.0187235773884208
0.0181293393619325
0.0465915069998894
0.0420832176774584
0.0176821407303513
0.0173203707106595
0.0381702602598673
0.0397694089398448
0.0179379521884285
0.0176391970237888
0.0358972297918904
0.032462957663846
0.0175105838611137
0.0174482415814785
0.0295932643627985
0.0173865298239514
0.0173274497275422
0.0174197564744851
0.0166937333130786
0.0156561276371068
0.0156111270085706
0.0170083258701846
0.018263780390586
0.0309173830736426
0.0365693408234318
0.0182118721869791
0.0179615867080054
0.0336977874269688
0.0308690960901477
0.0177310233276564
0.017769394646785
0.0301730780003784
0.0278785007096361
0.0172915462325686
0.0178481506031824
0.0295029744397813
0.0273626959455385
0.0175203125998318
0.0172699885593635
0.025586714903917
0.0242199020295432
0.0171079448940332
0.0165805088668269
0.0233001263152181
0.0245658429012832
0.0167627264670219
0.0170019088583705
0.0260888772846471
0.0279175727404135
0.0175161399172836
0.0173186391250858
0.0260010821676933
0.0244029990304533
0.0171746660510382
0.017146056360152
0.0162076963250835
0.017037044106066
0.0245997475341103
0.0234932847734557
0.0171589379206341
0.0170500442392116
0.0172437309245062
0.0165305875820697
0.0174319863500567
0.0272046711819598
0.0288739313821018
0.0180138591440666
0.0173420750361718
0.0175994088174967
0.0180308268544895
0.0327314816465362
0.0298959807520786
0.0175959471676782
0.0182123323739403
0.0320342742140678
0.0340081018908271
0.0191421243892647
0.0197445674733085
0.0310366365293267