/*--------------------------------*- C++ -*----------------------------------*\
| =========                 |                                                 |
| \\      /  F ield         | OpenFOAM: The Open Source CFD Toolbox           |
|  \\    /   O peration     | Version:  2312                                  |
|   \\  /    A nd           | Website:  www.openfoam.com                      |
|    \\/     M anipulation  |                                                 |
\*---------------------------------------------------------------------------*/
FoamFile
{
    version     2.0;
    format      ascii;
    arch        "LSB;label=32;scalar=64";
    class       volScalarField;
    location    "1300";
    object      p;
}
// * * * * * * * * * * * * * * * * * * * * * * * * * * * * * * * * * * * * * //

dimensions      [0 2 -2 0 0 0 0];

internalField   nonuniform List<scalar> 
209453
(
83646.8058392316
83661.9595559308
83683.6447304155
83660.7880765198
83646.3217723828
83634.8442445331
83624.905618166
83612.6360336909
83617.4883169264
83625.5547140744
83625.0104841251
83622.2997692515
83622.3043212861
83632.9869628758
83632.5129580211
83641.1638149341
83645.0082422086
83642.9272341391
83642.444889814
83655.2880221213
83663.6600683708
83669.6764130326
83655.2042520797
83645.7216066128
83645.9628732849
83655.9706903864
83655.5448224227
83658.9477517187
83665.5485016359
83663.9201145375
83659.131532769
83662.5308531128
83663.8085913872
83662.8408154821
83661.6334385071
83659.9995758691
83665.6607872125
83672.5951310589
83660.1421358354
83659.4614018971
83673.1215408627
83660.2526650323
83655.0426469627
83660.3705772658
83679.6625727743
83621.4313644635
83629.0522696428
83604.1540648911
83576.270237232
83583.7599512992
83600.1506084727
83596.959975058
83572.6456452463
83662.2570797775
83670.6219758152
83630.4133641529
83620.5431845178
83614.540590655
83614.7760819454
83615.2874257137
83614.9462755396
83613.9398183501
83615.3225350406
83609.9490807479
83609.8634469267
83603.9419174752
83602.3685240578
83584.6518502697
83600.072167255
83617.4943999194
83613.507657206
83632.2417034823
83669.180368465
83663.7824885647
83643.6395009619
83622.7354869914
83626.5995267835
83602.9376061709
83591.6532985646
83598.846664067
83605.3362339875
83609.7403179343
83608.6857312297
83609.4444167679
83611.4515652194
83612.199336851
83610.7382931647
83613.2948413092
83613.8684409814
83616.2900463903
83616.3615637856
83613.1446601357
83613.6380649142
83616.474568151
83616.7577464259
83626.022104602
83624.9968834452
83635.0145083606
83634.5931845306
83645.5574408476
83646.5759429176
83657.3437433051
83656.4536309746
83668.5281686102
83668.833629688
83665.1661575568
83664.9990337239
83677.3440356462
83677.4980330277
83671.3980993649
83670.7450924062
83668.8126662475
83671.1960007428
83671.7734347765
83669.3281849131
83658.1189252189
83667.8167509984
83669.0380285343
83673.0766363273
83690.6647931848
83676.1454667203
83675.9678761433
83684.775540856
83682.9701781665
83679.1017132005
83679.3519275986
83680.8266110788
83683.2930523566
83683.0421348837
83681.2319313552
83681.0521043807
83679.5091363002
83679.5488241308
83677.0391602892
83675.2224642825
83673.0141134116
83672.5739538102
83661.0957457553
83661.3692980528
83654.4470545073
83653.2847701994
83647.9723352349
83648.9437278517
83647.2196033184
83646.4050062365
83648.8400127948
83656.239926022
83658.0640144381
83636.4902770291
83632.918865461
83642.9893476278
83608.3733404355
83612.3526001247
83604.9850297174
83602.1727809323
83591.001973803
83600.1328092189
83610.8727396266
83619.4121483829
83639.5347673048
83613.8516434786
83606.2815133282
83624.2691088133
83611.134582993
83607.5125913307
83608.9784898133
83610.1289621942
83613.4499759443
83611.4096757437
83605.3103290809
83603.3027841411
83605.5861346511
83605.0482389823
83605.1628947351
83603.5262475178
83604.6615401358
83604.6882383193
83607.1203509701
83615.843524113
83601.5939845133
83599.8037632922
83610.1601285509
83604.3380596065
83602.0032067921
83602.4655410961
83603.1193791248
83604.8526553848
83604.5461565742
83607.1641139852
83607.295618628
83609.5292367818
83609.5824089432
83610.203277753
83610.186495398
83610.6454620357
83610.5411745996
83607.5502223392
83607.7639379521
83607.9278691228
83607.7226197379
83608.0714751889
83608.2652484589
83608.9860146965
83608.8701258317
83609.9781749694
83610.2698858552
83610.3833247311
83610.1749709263
83616.0691968313
83615.9550615181
83625.424163896
83626.1633502707
83633.2287906541
83633.5148695211
83634.3152666861
83633.9506440227
83643.98707496
83644.5889747758
83656.5810341374
83655.9431486784
83670.5207222993
83670.7696336242
83688.3882722862
83688.0468870793
83682.1917633884
83682.8890748736
83694.1125106729
83692.6668161034
83690.0806430749
83691.2481978738
83685.7677067237
83685.9956902486
83684.4783171502
83683.767098153
83686.9720820174
83686.8557078789
83694.2099377483
83694.3879325632
83689.9702109696
83688.9859901982
83685.9867390966
83688.62290417
83686.5596989503
83679.7826160957
83691.6820326697
83693.2843564785
83691.349702016
83691.9066329539
83691.1991850968
83686.2226097601
83670.7520013324
83669.7513135807
83662.8941578365
83663.0414329265
83654.838615628
83655.5074310965
83647.9602459089
83646.5903271104
83642.6317818505
83643.9658624411
83640.0374725258
83639.7701998349
83638.1790328659
83638.628852605
83637.0348521917
83633.9485285888
83627.4609569753
83629.4065372906
83620.1538533041
83620.7554704391
83608.7983350431
83599.6708050097
83604.3246739249
83606.8674892615
83605.1868549495
83603.6465223129
83605.0065997234
83604.4081529255
83603.4579082542
83603.2843497015
83602.3121189233
83601.7425034103
83598.5915421793
83600.41986083
83602.628420467
83594.5845728611
83594.5183820283
83598.5055277689
83597.8580413802
83597.3043162685
83599.8376485785
83599.8076239113
83602.0940244564
83602.091837802
83604.5075463274
83604.4028998654
83606.4317629122
83606.6801454376
83603.8480451308
83603.6924237233
83604.9296801887
83605.1548921643
83605.335049202
83605.0841249636
83605.3979440471
83605.6745718738
83607.5032733032
83607.2172216915
83612.4706095792
83612.3603671828
83621.9172586568
83622.7878514975
83629.5013905213
83629.7599647165
83632.2336804021
83631.9716215601
83642.6832881388
83643.2195147619
83644.1896764762
83643.6560027872
83656.721931146
83657.4134394338
83673.9496773711
83673.715269708
83694.94423699
83695.0258817594
83713.1616552685
83712.2857612086
83707.6683792327
83708.5988247345
83702.6254286688
83701.7999298367
83697.9757465163
83698.8530624021
83709.7263015153
83709.610973331
83704.3096333749
83704.4241888252
83699.8360795201
83699.2220501686
83695.5738014124
83696.2787378967
83705.1119437605
83704.4951908623
83701.6611756999
83702.2168097308
83698.3901056005
83696.0652479615
83693.7516496954
83697.2860540107
83705.2682059277
83705.7399112724
83704.922782047
83705.1692095085
83695.7738665279
83700.5275370287
83704.4401668274
83705.1655111419
83716.7393670374
83710.6533075868
83708.6545824976
83709.245068996
83712.4984967534
83711.1715255753
83715.2960933045
83714.9101145026
83707.6970991001
83710.7225994962
83708.2629172102
83701.0812046931
83703.3972287419
83708.4672986141
83706.3267054633
83704.6966909238
83702.0427448917
83699.0155203788
83702.2310152224
83691.3139012179
83707.8950200483
83701.6136894239
83686.2887975551
83676.2005765514
83668.9958679606
83675.080992787
83657.9231713937
83655.4974101371
83655.5753548116
83655.421590484
83651.0120300147
83651.4992722367
83639.4130210474
83638.790076757
83637.4806964892
83639.2083095241
83637.8934075942
83636.079792477
83634.157621724
83633.3752735013
83637.3956227416
83631.7276881913
83631.8843052221
83636.4138821721
83628.5037225722
83627.7230336461
83621.5553120514
83605.8288366861
83612.2746893003
83615.1952871169
83610.6924123935
83600.0713678137
83604.388548845
83606.8058277817
83604.3855667622
83605.5149188116
83600.6256491783
83600.1874157444
83602.4863069191
83603.4297286771
83599.5419049118
83599.4836863721
83599.3782893925
83599.0661021076
83597.0374197154
83597.2395871538
83594.8271780674
83591.1810896657
83594.6147046019
83595.1756634684
83597.2646204121
83597.1837908834
83599.1878206636
83599.2547017287
83601.5406532506
83601.5631413697
83598.3256566464
83598.7544994384
83601.7177163881
83601.414535681
83602.738915918
83602.8774191636
83603.1983346201
83603.1376435333
83603.7762127025
83603.3139681998
83602.1824418563
83603.3626255559
83597.9098315899
83598.335158965
83601.659192822
83601.2342357492
83601.4284461696
83602.1052317412
83605.8197391034
83605.9243265529
83616.1504680255
83615.6646559776
83621.4874148751
83621.0873369863
83626.2717878691
83626.5148932701
83636.5325636282
83635.8269650758
83639.8542265193
83640.4463610796
83654.6400691528
83653.9426331976
83656.5098773524
83657.2122574493
83675.38465349
83675.1961594232
83699.6618330951
83699.509241066
83723.8595198649
83723.2877361578
83718.7635481314
83719.647362618
83737.1407380875
83737.128201898
83729.7951635615
83729.805922773
83722.450887334
83722.3615845738
83715.7762963363
83715.8396618621
83729.049731965
83729.4366461919
83721.6866027311
83721.2677067909
83715.9181273291
83716.0910993857
83709.8214523916
83709.9550017896
83720.3851256447
83720.4049731794
83714.2134361001
83714.3818198562
83710.0798522762
83710.0889057616
83711.0662482316
83707.3809663415
83698.7634967226
83712.9961331594
83705.2371970368
83690.6602974399
83678.3047574841
83662.4791228837
83638.006910443
83608.6257747456
83581.8421978511
83552.5153035111
83535.2119083807
83536.9031951618
83567.4113167957
83568.5702231159
83585.1929487843
83582.4255574721
83594.7822780988
83595.1478694966
83589.4731657991
83587.7426781049
83595.1603413815
83595.9542412951
83592.4636450808
83591.6850892935
83597.4868562033
83596.9661123986
83595.1728242475
83596.0372195494
83596.0494222641
83595.6101870401
83591.748344607
83592.6177473816
83591.6247916532
83586.2522871211
83588.3966069689
83592.0451744498
83593.0635400644
83594.0904916929
83595.7857321114
83586.5728672065
83592.5666872285
83593.8447190414
83596.5208317367
83596.3012572406
83594.9218829363
83595.1164813381
83595.1738710825
83594.9416970784
83595.8920495953
83595.5542616577
83594.970275604
83594.1014351691
83592.8378282228
83589.965315383
83593.2305457598
83592.023853099
83590.4380520314
83588.94370175
83601.391713122
83596.0680244982
83593.4919078443
83596.9098692715
83598.048775993
83600.1814521835
83598.1210623775
83602.1263897885
83602.78581852
83613.7161667336
83645.3663140675
83642.6631700373
83605.9261663975
83583.0697342038
83556.9476424515
83569.395375666
83586.7429749446
83590.7602541581
83585.9260280627
83603.2895845618
83599.5214183506
83607.5909112151
83611.3063513129
83641.5462071213
83622.374000186
83613.0753754749
83647.1080796617
83589.8152078008
83592.8058351163
83585.1462946626
83579.1129740129
83570.4634340943
83585.833507445
83584.7719796491
83560.219626077
83573.5621698204
83586.3159284896
83594.0513643605
83590.3829007555
83595.2495734514
83596.938883765
83598.164727086
83595.770435293
83599.583413509
83600.5806502241
83599.8648338639
83599.5855544827
83596.3364116026
83597.4987852941
83595.7081561257
83594.8423918698
83571.9388041115
83586.3299470711
83593.8306463325
83603.4901671974
83602.5132720203
83588.2870709913
83595.3206702715
83607.31829142
83615.3108454512
83627.9937063331
83615.0410103757
83614.0543436491
83615.001942794
83613.3503710109
83609.3128537406
83610.3150985834
83616.8231321187
83616.1857511336
83623.6428040276
83625.0391618995
83629.8992310998
83628.8313012694
83639.5791613628
83640.6057633952
83649.8784058799
83649.256965489
83667.0601123693
83667.4047153971
83673.3348894691
83673.0189654319
83699.1534952296
83699.018661263
83728.7836338115
83728.5096394397
83726.4545802909
83726.9115351643
83749.4880416734
83749.9546953613
83744.6584196217
83744.3935447684
83764.9861678914
83765.8259139021
83756.0201041614
83755.1854161648
83746.4101068158
83747.0126356882
83737.4270234466
83736.8813428975
83745.6557070682
83746.7445193111
83752.0970597743
83752.2482528127
83747.0317332471
83746.9140427726
83741.7140746012
83741.8888167998
83737.1660481056
83736.9891242453
83733.5082097875
83733.6295286343
83730.3401228784
83730.2405640759
83727.4209927535
83727.5395196051
83723.3050513459
83723.47980411
83723.3793906747
83722.7891314081
83726.7557730659
83727.4539513595
83729.3706547906
83728.3868647959
83732.074342067
83733.0944771387
83736.524247899
83735.4076673937
83742.3193636273
83743.1839283544
83747.5967927997
83745.7026224632
83761.2085494577
83760.9840548859
83757.9230751459
83756.3714005748
83754.9495936542
83752.0863552849
83744.6695084601
83740.2323887659
83733.6600353096
83718.8783250044
83697.4220239867
83670.3193611585
83633.2304976126
83590.9992711289
83561.0420015152
83544.1443129044
83527.713971953
83512.3114490639
83509.1545761082
83551.2861931751
83554.5060424789
83577.0702959891
83574.39495843
83567.5198222644
83569.276308608
83584.2760459168
83582.6255536429
83579.8513286832
83580.5396023426
83589.8721794682
83589.9249793472
83588.5040937229
83588.8579428264
83589.1136775713
83587.4228120993
83585.8460786873
83589.7244152236
83592.0926528224
83589.5850702602
83587.0446937656
83589.4746731704
83591.5913073835
83592.284411753
83585.836312553
83593.2702441568
83603.8854188906
83633.265485015
83584.4034840354
83596.942438076
83600.1636493514
83574.956344183
83651.2123736196
83627.6163307902
83626.2857698878
83646.8537460865
83634.243085985
83629.0278331617
83622.277543076
83621.7895640287
83617.2904624423
83618.3780920113
83622.5975142156
83621.5304554907
83632.0817017527
83633.019075095
83640.3420742633
83639.611272012
83653.3515357505
83654.0401589285
83672.2846208951
83672.4498047003
83691.7085120722
83691.457992306
83725.4899099748
83725.9747400208
83728.0952688061
83728.0473577149
83754.1428732202
83755.3218234706
83754.6388577385
83753.7815780678
83778.8735316989
83780.2683369141
83773.5147840034
83772.3782977578
83787.8530276087
83789.0924729286
83797.2599042195
83797.4949600532
83791.779132477
83791.5786446858
83785.1982393175
83785.481395931
83779.1053135963
83778.7924587126
83774.6683770862
83774.8719379508
83768.7578579349
83768.6151072877
83762.29299114
83762.5220316464
83756.5748244436
83756.3716267794
83765.3705689326
83765.591932332
83760.6933996017
83760.5214951396
83754.4231624559
83754.6355766216
83749.8240705566
83749.616818172
83744.0998297019
83744.4105841101
83740.3628775913
83740.1139604885
83735.5970206623
83735.8952476379
83732.2930468856
83732.192709693
83729.6249626771
83729.4305279648
83732.9399255551
83733.1239398968
83729.076985307
83728.9857781426
83722.6572887656
83722.810281626
83719.9886714198
83720.6713259786
83719.0143438136
83718.0092493473
83717.4312719079
83717.8297913165
83716.1631577291
83719.058102446
83724.6853429868
83722.6338698895
83716.5481387009
83716.4411140878
83699.78196242
83707.0715080687
83719.4333726573
83719.8739390427
83716.3569260638
83714.6771005002
83703.0980238575
83706.2021813915
83698.1168290159
83694.3481887354
83680.7424381479
83686.7630990445
83671.5975646682
83668.5858379727
83652.2694114331
83650.5751297872
83635.1270074012
83633.9295316876
83638.192856
83636.9184189328
83639.5971292515
83639.707035104
83622.2197929076
83622.1926979757
83624.6461206286
83624.7458899692
83624.9651532652
83625.0067372512
83626.6200776341
83626.3035684259
83620.8040581977
83623.0844662476
83635.0767150326
83628.2857262365
83622.9667141953
83632.8895647002
83617.2022048287
83614.3166695329
83623.3544988754
83624.878399551
83620.2354060427
83614.1985008448
83609.6793733352
83620.8140761814
83590.2023079748
83595.2724462776
83603.9718595092
83607.1898411331
83601.6842500795
83595.9337275114
83590.0660925747
83584.9697349082
83579.4332450123
83579.8286283188
83579.0973186779
83582.7725051397
83585.0282139765
83575.9843590847
83587.6314372459
83585.6771966668
83590.7621315103
83596.2634471652
83595.2615158731
83595.4475241927
83600.4356067709
83597.21622169
83612.7493507637
83610.0870460674
83616.6794705999
83630.4738263087
83632.0531958511
83617.7505369077
83617.8247032848
83618.8588206068
83622.4152173627
83623.7220895697
83611.9231986737
83612.9740840338
83612.848210009
83610.1340811135
83622.2593495161
83623.8383604734
83623.1051787544
83621.90742177
83648.8614837164
83648.8688768708
83667.3466312222
83667.8537917163
83684.4186792487
83683.4698799178
83703.2121296494
83704.0201296443
83715.6500046583
83714.8589593366
83739.0659503624
83741.0253617849
83751.7913313583
83750.3200690206
83775.8767066382
83777.6932643243
83782.0567822628
83780.3380761211
83801.3358565092
83802.800720745
83811.5589916157
83811.7027389075
83809.4813425375
83809.2504172628
83804.8771202546
83805.1969413138
83800.4149137111
83800.0288119502
83812.2366218294
83812.1996013323
83808.5301013809
83808.6159252367
83801.9890148927
83801.9658178345
83796.5297443494
83796.4708865898
83789.4757251193
83789.6383439354
83784.6855011703
83784.5833374501
83777.6063949233
83777.7278307267
83772.1832923653
83771.9909677894
83780.2490000231
83780.3650527787
83773.6736681552
83773.4003763331
83768.1089509804
83768.3056148192
83762.0845990684
83761.7583231603
83756.5404206476
83756.7526504125
83751.0840433679
83750.741871363
83746.1027558342
83746.4226734583
83741.6561852269
83741.277482732
83737.1376419061
83737.1354854701
83742.0794946849
83742.0385705346
83738.810801606
83738.6692411717
83742.7309302717
83742.8287350479
83738.997381667
83739.0701594824
83733.2295345857
83732.7254614241
83728.2490903448
83729.5662933495
83728.4886632182
83727.6636913368
83727.5950853691
83727.2025452413
83733.816964166
83732.6883352104
83733.934782665
83735.4314891392
83737.9588907517
83736.8216585771
83744.2775327968
83745.281090631
83741.7229962779
83739.6597324399
83738.1558062382
83740.0884409532
83735.3098149917
83734.9392601863
83728.9617507124
83728.6744308287
83723.9866891007
83724.1777149756
83732.5193903627
83731.0587596571
83728.4206844532
83733.1936613426
83726.4844347226
83722.1930921466
83711.6611244879
83715.0887036351
83701.8680554228
83697.6616301577
83684.3904826547
83691.0042567716
83675.9774784513
83669.8379940302
83657.0346743418
83666.8593521439
83651.3188927132
83652.6611852056
83618.3744260701
83619.1590754918
83587.8968621049
83586.7613360516
83606.002461633
83606.85418051
83616.3596546248
83616.4989642803
83601.8277379825
83601.6130561839
83607.6435908761
83609.4321455528
83614.2792191625
83613.7738097671
83615.6130374562
83616.1936727348
83605.6603169678
83601.286536821
83618.7979189412
83614.8565786265
83607.3783286397
83617.7636134958
83580.763219193
83594.977122225
83580.6553524307
83574.7047788842
83561.3100175092
83558.2297252759
83538.9781080724
83545.3621219996
83496.1766198711
83499.4670596111
83464.8620560252
83463.2343968944
83438.7592046125
83438.1934925288
83406.6926284655
83412.8663038565
83488.1492083823
83488.9713403022
83541.3462529332
83538.651785149
83535.1760356258
83533.7419924474
83563.7673657494
83563.3214483082
83554.7376633769
83560.0707105165
83571.3851712855
83559.4221020207
83579.9899912686
83580.7334689785
83572.2890591611
83553.6729936459
83571.5584438119
83571.7975989926
83574.9334548564
83578.9038455292
83589.3549106316
83584.1154374023
83591.0996193801
83596.3995285685
83598.7014176357
83596.0457703957
83601.9476397643
83609.9015327966
83613.9877157808
83605.32319292
83596.2004438102
83593.5928966235
83600.7504613709
83604.0965305044
83607.2671005306
83604.4416565735
83595.6178443654
83598.0728216838
83593.5074534235
83589.1176358973
83582.774873753
83587.9748204548
83579.8546746598
83577.6055191828
83583.9655339972
83585.5850372426
83587.5661577288
83586.131852808
83590.4526784417
83591.2408703961
83601.2540854476
83599.8571802211
83605.7877481512
83606.8112313202
83628.1717403566
83628.0347366861
83645.7309531507
83645.5885447143
83646.9239813758
83647.6057753346
83673.7704113525
83672.9105267702
83698.9692829177
83700.989832605
83723.2870762258
83721.2502184031
83740.292806639
83742.241901743
83765.4392680117
83763.6171960394
83785.4011798809
83786.5889514723
83791.7236098865
83791.6460308383
83801.5653669118
83801.5274296562
83806.2717263262
83806.5003745895
83809.1053063043
83808.8446564499
83820.9379632256
83820.4373976219
83822.5356183181
83822.9687338873
83820.467584796
83820.2225604235
83817.4170991849
83817.6330303971
83827.0713751111
83826.4764162221
83821.3299269478
83821.67571822
83817.7227694069
83817.4443251535
83811.0659183701
83811.2185153403
83805.5084967584
83805.4523718131
83798.4960173667
83798.4388080495
83793.1288660562
83793.2083420226
83786.3245600171
83786.1451136138
83793.7676714573
83793.7591651617
83787.6137410207
83787.6251487032
83780.9403024966
83780.9968185342
83775.254956915
83775.2422781187
83768.9021928115
83769.0299665761
83763.1841830246
83763.1316317081
83757.1916682195
83757.3416927733
83752.0278585702
83751.8477937821
83746.5154743165
83746.8998853957
83752.3971746687
83752.119665101
83747.2794184072
83747.2210147693
83752.5792488088
83752.5567732353
83749.0601312371
83748.8839078897
83753.0842256788
83753.1837011641
83749.2509377106
83749.3011722813
83743.1657511231
83742.6429267701
83750.8832096806
83751.4369798814
83758.4222448254
83757.9533607089
83750.725013883
83751.6778080799
83747.4708140868
83745.1673361756
83743.5789826671
83745.8410034117
83740.8429226854
83739.8550711282
83735.3091915804
83735.1188638746
83729.6157575845
83730.3018083572
83719.6230535747
83719.8291834639
83714.0539949823
83718.5867573805
83714.0722231418
83707.0700116116
83708.876038753
83708.0170994212
83696.776817223
83695.7845864791
83681.6105362099
83690.7069902789
83668.7345422652
83669.6399197566
83670.3774224396
83669.309749116
83652.2889770547
83662.3630627393
83638.072078468
83634.9370104069
83595.8433414398
83596.7619689152
83557.9286760112
83559.6950884757
83534.1297836774
83531.4614234564
83563.2134950063
83564.3801157049
83586.8761081296
83586.5349871204
83562.6087249919
83563.3945514276
83584.8677950415
83583.2697908644
83593.3539684771
83587.9928839264
83603.5661505933
83602.4862779761
83593.0822683326
83595.5336980938
83577.1875301446
83581.9217486468
83572.3346732387
83580.4876208315
83557.3984442949
83553.347410264
83521.0715851017
83518.1568841728
83495.585998493
83493.1088066231
83471.9396743858
83476.2372275653
83421.0856777545
83423.2079158968
83379.5451157901
83380.6900697233
83355.1047043214
83345.8256649164
83313.9517569837
83331.0408775174
83324.0882157161
83305.1393911889
83366.2095030847
83363.0162056491
83465.0505948482
83466.4679364237
83470.4179138305
83464.7367052224
83456.5796818199
83460.9774534794
83503.8173358689
83505.9648864289
83547.0653162694
83536.591894987
83544.4584806924
83542.5521099444
83559.3336451556
83550.9562764354
83559.3984094266
83559.0763210282
83557.7178850237
83552.9797721413
83542.1172925623
83548.6501459296
83546.3542647827
83548.1800373518
83559.9006508763
83559.4828992147
83574.4712517857
83571.6714457269
83578.3677703751
83579.7745900254
83591.7318218414
83588.1042688745
83584.4778021908
83570.7175063654
83558.4230381797
83572.3071664507
83573.7312682634
83573.8887788398
83563.525681819
83562.393583546
83565.5266696936
83565.5114289224
83568.3175356691
83568.7689077949
83571.5820538248
83570.5347759415
83581.9067383309
83582.6268851349
83598.0230408348
83597.7593134421
83621.4398345926
83621.3708513654
83613.1672434812
83613.2880076519
83645.3370593336
83644.9287663012
83677.0105280656
83678.035015004
83713.7779665231
83712.2347071374
83726.9036959323
83726.7266870355
83723.0119283884
83722.8317779868
83744.4983614497
83744.9873752637
83761.2707667524
83761.0663276634
83778.0529701303
83778.2875388878
83783.5722639499
83781.9791462233
83796.5228854888
83797.6970113031
83810.5134122274
83809.4057542389
83816.4529289372
83817.0916436435
83823.3177642194
83821.4636297479
83827.4797902353
83828.9109289565
83831.8112765235
83830.7457118038
83829.1212607511
83829.8924018114
83834.4093634925
83833.3090922285
83831.3615213416
83832.2267792007
83827.6352459604
83827.04910368
83823.4502144484
83823.9303421374
83817.9143500855
83817.6189440104
83812.2532171214
83812.5005287575
83805.9309579534
83805.8070345883
83800.3855821514
83800.4800424974
83806.562474006
83806.392978215
83800.1964028479
83800.2754461741
83794.3476919073
83794.2786256722
83787.9232983221
83787.9301422911
83781.9463886539
83781.9611116435
83775.659663097
83775.602538816
83769.5576437158
83769.6230730059
83763.629394849
83763.4980087694
83757.8027902747
83757.9222136703
83763.6792991377
83763.5356442237
83757.540474161
83757.8715327709
83763.3101625088
83763.0696470519
83757.9232453035
83757.8342834186
83763.0298065351
83763.0246532767
83759.2751016912
83759.0173356104
83762.8221413584
83762.9815793779
83758.530717823
83758.3692366439
83766.2021467572
83766.5906208675
83772.9794821539
83772.3723197501
83763.9137330024
83763.5343529084
83755.6007959799
83756.5619927453
83751.8496174822
83749.4976061553
83747.6960313552
83750.0597175154
83744.8180197034
83743.3471518112
83737.834977072
83738.3755389808
83732.6361650735
83732.654812579
83725.1646212668
83723.9569227028
83715.3354276538
83717.1011032044
83705.1350611589
83705.6846083577
83693.636710581
83691.3959853442
83696.0060327085
83694.2882107305
83682.6137466847
83683.065692093
83681.1613973148
83682.0835442066
83679.174949904
83678.2990952519
83680.190161785
83677.6424760437
83662.2337932177
83667.888957598
83644.8820716294
83649.8480409299
83613.7961669185
83611.3017919052
83564.8476901413
83563.5024940953
83517.8905916086
83521.530428686
83494.5224389361
83489.7608414195
83454.3793880744
83458.7476952768
83501.2819987835
83499.2915656285
83534.6333740618
83535.5895614966
83508.7830794782
83507.6759143236
83536.8949507024
83537.5080013736
83567.5643240131
83564.3886329883
83581.5131047311
83586.8192837587
83575.2437124031
83561.4022750019
83532.5362586726
83488.6410829664
83443.2859410105
83391.2870505602
83347.4710239443
83324.1715252319
83322.2223932198
83305.8449858446
83303.5864615956
83360.1687380239
83358.0130695726
83420.0711771033
83417.7331506374
83407.6641405992
83406.5758186906
83399.7196301566
83400.6751728771
83393.5279975654
83392.4592438432
83453.1314782046
83455.0232520015
83503.4250611418
83503.8987648089
83542.9108560429
83537.5024731467
83536.9370837343
83537.9126880586
83506.8728482616
83504.3036772133
83457.6743848348
83456.7194367194
83454.2325528834
83456.0037747335
83500.8693485898
83502.07512011
83541.1662177803
83533.934267515
83534.2170534146
83535.7553446091
83510.7278703746
83516.8953200827
83537.0230467182
83537.8768107595
83506.030396478
83466.7608597586
83468.4342834338
83429.8606701261
83436.203421685
83370.678397336
83373.491711656
83416.3412593168
83353.6895034662
83347.588508454
83348.0427985907
83333.3172522791
83331.6095908447
83315.6159586205
83318.0180946557
83308.0571831468
83306.9777543691
83316.1348462285
83316.534046106
83314.0958872352
83311.1320506003
83310.1379175599
83315.9550437458
83311.1734206952
83308.0726449354
83307.4769495023
83313.2947771759
83287.8286261716
83296.6763151759
83297.0616097315
83284.6312972765
83294.7535947601
83299.4602412361
83305.262806564
83304.3213641159
83312.606301949
83312.7290344632
83325.2193906504
83325.3228319054
83329.2957996606
83333.5170758609
83334.8475846172
83330.9670894557
83333.663152788
83335.5438569206
83365.5801239263
83366.2860983076
83375.1857557093
83374.7747859352
83386.1516698519
83386.334194082
83401.2258255284
83400.6876253262
83416.6849660268
83417.4535872887
83434.191180251
83433.1619024318
83448.6672127594
83449.884432984
83463.9181567714
83462.6173122354
83473.8107260208
83474.9811536721
83484.5277404817
83483.8349772503
83492.7811637771
83492.5767869859
83505.7532402983
83506.7666393669
83528.1203133317
83526.133844093
83565.6359494606
83567.8123154564
83627.1627634191
83626.3138578095
83696.356821278
83695.7296032742
83754.0134923691
83755.6821424417
83788.5809414923
83786.7720522533
83802.6765788876
83804.2167480736
83811.5560549616
83810.0716053513
83815.1646142085
83816.688521697
83819.2265161492
83817.8624916544
83820.1897005922
83821.3660744524
83821.1346976816
83820.1827203331
83819.3718629138
83820.1811622872
83817.3445629806
83816.823608194
83813.9269784131
83814.2952532248
83809.8238452087
83809.5221599911
83804.8021444347
83805.0167280445
83799.4606021528
83799.3726360331
83793.7186206578
83793.7662571119
83787.6491062404
83787.6268946276
83781.4990022093
83781.4606370802
83775.2339812058
83775.3185302528
83769.2649507088
83769.1855877904
83774.560166009
83774.6261597923
83768.5470256408
83768.2704191568
83773.4547783324
83773.6395479415
83767.9510219758
83768.0798509017
83772.7743681239
83772.7247269493
83768.3380644218
83768.6584585665
83771.7642389078
83771.5475272287
83776.382496816
83776.7264220647
83778.9440202877
83778.6853386137
83782.4498697309
83782.8026861725
83783.7398335034
83783.422513647
83776.1700843531
83777.0583522712
83767.092363408
83767.3025130169
83759.5956275388
83758.78079708
83752.2808674148
83754.0817125177
83751.6641580542
83750.216297772
83746.1984845712
83747.3374060561
83740.5834774067
83740.1905646922
83734.2957485633
83734.6749736146
83725.713305576
83726.0332553091
83715.2056284153
83715.0669874559
83705.4167077862
83704.3234070904
83691.742098136
83692.8676865414
83691.2416841448
83691.2057148235
83687.2278209215
83686.2711270938
83669.8198541856
83671.7464138593
83664.9298840203
83661.2363225774
83646.1557186516
83649.7217382694
83646.6810479415
83647.4733392884
83626.4204623808
83623.2458656322
83595.1940484454
83601.6133158154
83561.4424459859
83555.4579515632
83518.6973810143
83511.65230124
83461.140372288
83467.6096439306
83443.9188997716
83436.2430811471
83400.2329773869
83407.8319888604
83381.990528123
83376.4036350976
83426.8755872315
83430.5116817226
83471.9993616988
83470.0107573622
83452.7040786621
83451.3834528742
83417.8673861298
83412.5358233698
83387.4489927153
83393.7319468805
83330.180353428
83327.1025888714
83291.6636717918
83291.2472565902