/*--------------------------------*- C++ -*----------------------------------*\
| =========                 |                                                 |
| \\      /  F ield         | OpenFOAM: The Open Source CFD Toolbox           |
|  \\    /   O peration     | Version:  2312                                  |
|   \\  /    A nd           | Website:  www.openfoam.com                      |
|    \\/     M anipulation  |                                                 |
\*---------------------------------------------------------------------------*/
FoamFile
{
    version     2.0;
    format      ascii;
    arch        "LSB;label=32;scalar=64";
    class       volScalarField;
    location    "700";
    object      omega;
}
// * * * * * * * * * * * * * * * * * * * * * * * * * * * * * * * * * * * * * //

dimensions      [0 0 -1 0 0 0 0];

internalField   nonuniform List<scalar> 
207032
(
3.36601206800217
8.27060417488343
28.522004490684
25.8065398230359
7.03436894600637
6.83460291106908
25.4349536172157
24.1323355985676
26.6476702200829
4.51399616366354
5.11763307618297
2.58169479737452
2.17017404311422
2.29018632203763
2.69037285261958
5.54698462619726
25.455338411137
28.348684077871
4.68687456353822
4.87107862280194
30.1645919465653
27.1631961652906
6.0920862548528
2.90679828581797
2.41256010976814
2.59135687737314
3.15765733320298
6.82468961391326
29.1526059021982
31.9070173985701
5.38601388731946
8.5609940391804
37.0413597037883
34.5728041767845
9.77694821407456
10.0643668189214
35.8781813804551
31.6733312745096
8.76543746557128
9.62924673860635
35.463721351925
34.2073779197861
10.0514870472997
9.64851746387715
30.4639551346752
25.1981776621739
8.08168670725364
5.33443601811245
19.269349234641
15.3436576007129
2.89277805814175
1.51860114014768
13.7386406907426
14.0712768324804
14.3850306860054
1.07608661091305
1.09084241248209
1.02279584886595
1.00357534292587
1.00224601254072
1.0011379665136
1.00461856189098
1.01643798968586
1.03083009099097
1.01220538620565
1.73826245070225
17.5347410627687
15.310849977403
1.67928350232418
1.06975299020543
1.0418334704502
16.6687279904653
14.8780121923624
15.0809171311494
16.5571683381186
1.03051654166772
1.03790969598553
2.44196330137741
16.6743530297569
19.3501258797352
2.38537458918453
1.16065591542225
1.20588654817153
1.21192033794158
1.16345878403061
2.93309017726257
3.54364212618768
3.54385811180492
2.94129662351914
2.09335878598675
2.34753747178196
1.21882533741657
1.16797079205707
1.06017673994758
1.08353045208057
1.31751804938604
1.18729562358948
1.27979156798194
1.39997809974295
1.44403805060338
1.37050477655714
1.48148698114873
1.58027318998391
1.91364690909116
1.63362835055392
3.17530452594395
4.02860162220049
5.44017801675676
4.81552468265805
11.083760724576
47.6655296984784
45.6290340283725
12.0509292253885
12.6604500528757
45.3008364005254
40.9946268381335
10.938067852976
12.0879500104524
43.6690026409872
50.3856425086184
13.0343537307882
13.6827547705745
50.6533989153562
56.7564876075784
14.6417510633625
14.6877501551908
62.2502057720485
82.6838885429835
22.4023554866097
18.869670433285
70.3247916957122
58.3655918753775
14.8730879714843
13.8040786009875
52.6308040385289
43.3354828485379
11.5379648462016
10.4218803991691
39.1427826125787
36.685884071478
10.1163508584034
8.0920633053055
30.7339033051822
28.8062659072199
7.87202343673754
7.3212420298978
26.6743004679102
22.8752383419834
5.95888675695368
7.55184686549638
24.9937240888194
18.2468025711487
4.8581132368308
3.35675094716329
14.9408931762562
13.0727950136438
1.96761742335972
1.0381946894321
1.01054858970484
13.8826513670473
13.1540360469568
11.940348898246
12.034899374755
1.00269341393883
1.00926986442066
1.00318901447754
1.00106469592983
1.00255002236639
1.00907606675606
1.01100348465544
1.32777906908839
1.40775572633199
2.08352099477063
12.6802549617409
12.5438235354248
1.75959680356615
1.00575807134971
1.00167203845751
11.8498111683728
11.8081077022456
13.2079066980869
13.9064488730567
1.00444180999805
1.01019426602148
1.00066130597651
1.00040829349578
1.00011517238159
1.0002381304848
1.00081514002599
1.00027090744595
1.00054094528903
1.00303231881316
1.00117750368823
1.00027391987597
1.00023511182885
1.00037399646664
1.00000208735222
0.999984785027223
0.999951082439867
1.0000708335571
1.00031059109436
0.99997860725209
1.00053524282133
1.00276639392377
1.0411323256531
1.01984936793775
1.00251535766866
1.00524384756827
1.02127489409813
1.01453805870233
1.02594518316067
1.03548916366395
1.05547745753281
1.04605753373128
1.10934117934726
1.14441114365652
1.18458366941334
1.14812415033626
1.21219308389141
1.25339025897957
1.26525738346524
1.22255160123752
1.37261040195096
1.45934627926504
1.47987278103451
1.39050886999233
1.85786278022972
2.23100047890743
2.3168265079486
2.03567094856242
4.89595901542767
5.45502161678049
5.41761293321577
4.88539806000534
13.7997839821104
13.4322125553138
14.046827770614
15.5644512614551
14.533084096856
13.1710532899592
18.8552572329632
79.4375401008325
96.166896081089
22.107053544464
22.709440223443
99.0598970718508
83.4195932804292
19.6356343450461
15.1444728166806
68.1675345818855
65.3040633552511
14.719661316878
6.54653897601301
4.01946619380619
3.27963160711542
3.75032525626853
3.58324379365627
5.08926825799521
5.05182115269061
6.73731615805985
32.6432689514454
32.1801058784901
6.70296644213661
6.66362429175862
32.3679105648418
33.0281020495071
6.82289626156006
6.77931908981443
32.3429626340429
31.936078234777
6.6947413652708
7.25060565292735
26.4657054992049
19.2185736682889
4.84097516398371
3.30583088530283
15.2447387546469
14.8132097315361
2.54368820922736
3.52961473047124
15.7617804473338
13.4309526369258
2.17776010902528
2.02056670365374
13.756068060977
13.9444161164267
14.9598405135637
1.0038838602984
1.01157201154933
1.00083385932518
1.00025760551044
1.00009218227727
1.00021616976652
1.00017935086819
1.00009221934398
1.00009054339108
1.00022610428062
1.00034609704663
1.00008035069905
1.00000735635463
1.00030876242827
1.0000950917756
1.00003147125383
0.999942025549656
0.999941464298835
0.999937258762522
0.999918627856917
1.00008700637891
1.0004014390683
1.00360423522185
1.00134067510481
1.00060403398408
1.00095286077335
1.00865006630365
1.0049452674716
1.01971355836319
1.02873394667224
1.0384483848156
1.02899052764885
1.04790551374677
1.05465505032281
1.04676372512909
1.04091270143435
1.06535261087019
1.07182857929082
1.08222541199247
1.07152827106695
1.10405823905693
1.11616342104388
1.13754615928084
1.12281244538279
1.22871436091734
1.27036222981066
1.29881519576473
1.25692383674612
1.28371960355197
1.32638362970119
1.35767488320322
1.31470724497837
1.52317849344967
1.63817965294773
1.66369651744227
1.55273546900654
1.88872302103731
2.20648661851604
2.20120033601052
1.92132342145483
2.11919479316792
2.34577956188944
5.47687008322464
4.99135673803906
4.96000723816744
5.43907967724759
5.89366451817806
5.56502047969242
14.9411477737935
13.372268164626
15.3079528043127
17.2745146465169
28.6676761488877
22.327527106526
93.6219412413015
113.256967882702
137.09243569028
105.480938905441
22.2098734098841
31.3004916362643
18.0817652405916
18.4204225068936
18.4337762014336
18.1374245005597
30.7291671558655
22.6667012170375
111.625117452987
143.459052614562
121.127635173225
27.6998089660297
22.0329303642484
106.355174994754
96.0520156972358
21.6252945415993
22.0039176630411
97.0545075903923
94.0328867767681
20.5585358521622
20.6702810380225
91.2617532031285
87.0500575849741
20.6579064106645
17.5942332617977
84.4968814064268
77.1029337704785
16.5283655384809
18.2656940275788
65.3921559586518
54.6504201580851
16.6775099247675
11.1558264867479
39.762612661894
34.9480677508599
9.31590512436268
8.3517468708911
32.3668606067623
30.2549081580755
8.26464421894363
8.25391122903986
29.1212741100606
27.4230463002593
8.13452451228528
8.13001421984919
31.4657493614487
40.5448285612856
8.69521785916044
8.36955854148138
37.493217115345
40.9016831370003
8.34620136380132
6.83186831684557
36.6659161792599
36.0411542435607
6.78334922331043
6.77695413067055
35.8801026498946
36.4696284466985
6.81169824151894
6.89200490607805
37.5488552109765
34.3164231422043
7.62740456320494
9.92794200776414
33.4947419805451
28.0937244616954
6.47315701161363
6.34154499965101
27.2414543620463
23.3247302320631
6.29360584314233
4.77234849420912
18.8791700586535
17.6166123801616
3.72841174421107
3.22606175973919
15.648554289096
13.4120557805831
1.77133913998147
1.41440619949359
12.5006160723105
12.8236215884559
13.6192668919272
1.00347101817225
1.00924277776014
1.00797600524361
1.00297315356442
13.6044794393986
12.812496851773
12.4972938180863
1.42104356367369
2.02120180887363
13.7715738194299
13.9329132173168
14.9140124239459
1.00339047288947
1.01192650046489
1.00125233587527
1.00031758425636
1.0002272798306
1.00053612885578
1.00029910362427
1.00010943083822
1.0000858040621
1.00033702841919
1.00060345565471
1.00009435877719
1.00006966687076
1.00212446064909
1.0179001992209
1.00177145485758
1.0007501315991
1.00018476629693
1.00429292453773
1.01464695338998
1.03656935681654
1.01301138445513
1.29171764947338
1.37531948737147
1.07450537479281
1.04165505539639
1.09481363565247
1.13573051769138
1.16532139864225
1.12100360240086
1.16235343005953
1.20814742864554
1.07015883139353
1.05898533724375
1.08876912148793
1.10057482660698
1.08157797924792
1.07379436788
1.10682850256836
1.11638344766396
1.1061952062449
1.09849488324557
1.11582049536415
1.12632386248309
1.1368137662897
1.12258021183816
1.14770468062943
1.16247057814361
1.16254442037578
1.14762260161775
1.17560043119472
1.19153787968265
1.22614303527369
1.20893514843575
1.24709684542156
1.26754365684276
1.39288484263896
1.34964927164134
1.38327749901114
1.43186450356561
1.68850496704308
1.58400256762232
1.61928800546817
1.71863553679688
2.20517211740255
1.95863293696147
2.27196038387623
2.39638830783219
5.53574324189702
5.13438551020898
5.81667360921717
5.92944980424343
8.64789967060664
8.52611191549402
8.59684019119181
8.63372227652515
16.4806133484974
16.2414916816523
15.7141606520412
15.2252386877709
21.5695822285307
98.3115604459014
110.44004593842
26.4295648361361
26.177150255954
112.901647930975
98.3627167780179
21.4234404604714
20.4152893211663
93.2688931859301
92.1459119211856
20.7250106754494
20.4147410326573
94.7382771904878
94.1504364111065
20.6710309542943
17.4709612857961
73.9841305173376
71.8132478957356
17.3347762214451
17.1217844531198
58.7258544978424
50.1918143843286
15.0255892910303
14.3027693899036
44.1340884303066
34.912028636012
10.2540625397544
8.4850574649748
31.5333582686587
33.8496747348001
8.25303863969956
8.1828212865117
33.0288343476012
32.3938636373558
8.15738633254195
8.67116204243864
41.2778748455425
40.9342647652042
8.33368542913098
8.3441956845609
41.0485333889902
41.9804169219129
8.38692159327364
8.46347613073187
43.536136891279
45.4932978977298
8.68391261473475
8.10018521107826
40.4505270904616
40.415995653369
9.79264621457768
11.4737221376726
47.7747513797349
50.5829365464567
11.5678945568989
10.6769697178201
39.6698246871656
29.899733725346
7.20555779064171
6.11489547062354
24.610186271916
21.9957826146506
4.59392435533406
4.46616304260941
20.6590194229475
19.1420957982162
4.14998471064609
2.52964665950703
15.5314405611012
14.3688374947481
2.07560666029722
2.28246547348111
14.5219560812769
13.4059995633625
1.76204779027474
3.21133964155863
15.6657186286571
16.272539052353
4.0074834839926
2.76518282254907
15.2036089916636
15.2732524876825
3.30452265822161
2.07517904204895
12.7257497951325
11.9335937516187
11.9846806159253
1.00186595250038
1.00781026937312
1.00207864705252
1.00041474628963
1.00145596388352
1.00839479927684
1.03932258337555
13.1930632479702
13.843591947545
1.0138185982439
1.10447383229393
14.3406538573804
14.1245115864115
1.11384852769274
2.40040875106697
14.597391992122
16.0448211714395
2.33212710536084
1.80921204695092
17.6605104182251
20.4609212825062
18.9785965961898
3.72596207123274
3.30442433480922
5.4806800845514
5.06281459437743
23.3117716152118
26.3736524020566
29.4749611387641
25.7990194689288
5.09879077327795
5.1667205196382
3.2968514153985
3.76701197473275
3.75921975674762
3.2889813502464
1.29615887150744
1.38422978020356
1.39486358979349
1.30265085864729
2.29235519236898
2.48260083671
2.73181552951928
2.3934157244427
2.63072519814694
2.96341730598744
1.53098176300533
1.43088182145702
1.61580668123322
1.66353667417308
1.25972164510423
1.21721646337969
1.29714693121464
1.32813560694349
1.13513781673134
1.12194588092612
1.20869671765845
1.21701017957128
1.17165553635752
1.16035829312552
1.11523754600674
1.12635363752246
1.16104296777992
1.15103279301542
1.14368695224605
1.15447893729695
1.18923047247283
1.17786917225326
1.17830902192523
1.19389038979858
1.23221475945249
1.21563840722236
1.25820187479849
1.27813004764818
1.33337828610568
1.30244459437929
1.28519551316156
1.31658856677219
1.37088828263588
1.33032296585054
1.42108454883799
1.47599974807453
1.49311641277421
1.44038137604645
1.47051336106019
1.52294503641989
1.74220047254543
1.65253947258086
1.67088655222926
1.7560272243406
2.18797285614682
1.98314710181645
2.02773911475828
2.23453937933185
2.41765793761715
2.29247052873705
2.36158820990639
2.42223910631718
2.42251721315316
2.65224430199244
2.28596889456336
2.3978307034017
2.39696112602177
2.27118492167933
1.98130549986467
2.20669600499215
2.18411805343351
1.96274270390685
1.63920459914274
1.73010144553028
1.72350472140571
1.63232099661439
1.7410431967004
1.78366434125326
1.81064230830485
1.81098504851537
1.8165195026703
1.74535751341901
1.74047797568197
1.73761478524426
1.73230279663246
1.80454146759915
1.81520167331753
2.10050688904314
2.05956272950935
1.9277507395372
1.83677910260862
1.84892978206479
1.79525011847896
1.72294535301708
4.21274755466531
19.6867584931306
17.5848280374808
2.8761529022526
2.65316882703532
16.6705131348647
17.7739036569847
3.16567069818342
3.10176864885776
16.2364861569358
20.888547087919
5.54745284131824
4.08525731479193
17.9327500872339
20.2404766645564
5.3492620861639
3.9854825960908
19.4065927393452
19.1073590366917
4.7276824201385
4.9164774525047
18.5196926682277
20.3521108256627
5.42982817591686
8.31384254572811
26.0332380487449
27.3471728217965
8.93467535242759
7.58218036897555
27.5643654726021
29.8356894454366
8.18655498906308
6.67992992462013
5.91714293680449
29.3780179758513
29.6871796044628
26.856600395888
5.42632863267825
5.19958323842277
27.8431858310803
35.687601878179
35.1727369162039
7.88680147020553
8.5883540223386
3.67400515792599
3.14123449072729
4.40837376258924
5.05628524884597
1.98758938569094
1.93325371038893
1.97211875784382
2.02636828960912
1.37618168871194
1.34252224502942
1.32119781443042
1.35509178236808
1.36005365072661
1.32522605961957
1.37371094885475
1.41085390224114
1.26257732175706
1.24354004816062
1.2468342411773
1.26060354676466
1.21112787488868
1.19528757863181
1.1914455927838
1.20862847614526
1.20047364638595
1.18873411495276
1.23570585355864
1.24840410503764
1.23204916746301
1.21943813119458
1.26807127188414
1.28400679995744
1.34625226177231
1.31769102781122
1.37505799306086
1.41492794284738
1.39278608092664
1.35250612921913
1.37578884475547
1.41432948576447
1.44737388533948
1.41085397551202
1.39279145102816
1.42650779724099
1.42045976203048
1.38440565187155
1.46806254394709
1.51819863407656
1.54856951223914
1.49780001913661
1.50397131072015
1.55538085568521
1.76552929786399
1.67783547912394
1.70494404182132
1.78513655401979
2.1989648806603
2.00938063170901
2.07320769049767
2.26712919298822
2.45149148812308
2.32505477244097
2.54846105873551
2.54537373260594
3.93040427354035
4.1343614893898
4.17702461617707
3.95592452260741
5.8991553782219
5.82167877159138
5.85115193097578
5.90018240395483
8.56276681458243
8.58170297229875
8.63536604139659
8.57743062892169
14.8436747465831
15.5045848416685
15.4362809321189
14.7649571497753
21.5090389730212
101.518371789268
117.407564827196
26.1535459700546
26.2486311572284
123.443571477586
106.275994378714
21.7007360566162
20.3992002855369
102.076204437797
96.9027181698569
20.3444165591176
20.6820348867709
104.013169177955
104.408782921276
20.7902813158913
20.7296461658908
98.7715484242391
79.8761634943826
19.7605337722157
20.6022029277728
71.3377065460648
63.2459951849692
17.3029989380834
10.5955019349849
7.54923105257654
6.20210556090797
5.76218303127327
13.1436882227007
43.3336975881247
36.2010236860375
9.47646275169884
8.85567792140933
44.5511716141485
42.8713310745211
8.66819691358064
8.65749349493774
41.7640613268707
7.6060180791464
5.38972737436005
5.57535769239307
2.52649231907944
2.6466846514411
4.16082467949133
5.10675420010862
9.63064735346899
40.3058200193289
42.4447528486213
11.0249241659087
10.2801861507469
35.4944917483295
25.3377313079482
6.0429990779791
5.04882743770588
23.1097627217235
25.928901842264
6.62025287198354
4.80154903941685
20.8876665706889
18.6575592320266
3.43459441925069
6.36491620051353
26.2696089083493
24.7672243634784
6.00456360009154
9.07327962927144
32.7478019480618
42.4668349197161
9.55639709594488
9.5918744108891
38.5014340637047
33.4325350730642
6.7575456578722
6.60979046518784
31.1274158090277
26.0396403239365
7.07457042398402
7.55711839028913
25.4633155939193
23.7326751233869
6.13890288200475
7.92269136439666
28.6101937548452
32.2169734354774
10.6041144479472
11.0714291173393
35.1013401837761
35.4543147425337
10.3168050982613
11.8066785406938
44.9234640869689
43.2627351757593
44.1087678768549
9.26793908535772
10.1104566989038
12.4855398992509
12.5571549264425
56.6005822264126
51.0614280116643
54.2125190427935
13.5930451620173
14.7624872773313
60.5148149482202
60.7837966546777
74.1750247209894
17.5488800371671
15.8473851938672
12.7075523152624
12.5909741792611
11.6143902118364
12.2248169691092
5.09567471974553
4.48871455083834
4.49835262746188
5.0875261495937
2.16571752769153
2.06942686951337
2.12878217907924
2.22007112045895
2.07390592569639
2.02659982991726
1.38091541584929
1.41378703049061
1.46375760580322
1.43078921142664
1.49353707689141
1.52897169595694
1.47227605750384
1.43471567552432
1.29997455496861
1.32042166090006
1.31701183457162
1.30166147597126
1.2465678662224
1.26400351442152
1.25817994209675
1.23933279261624
1.29517208830719
1.31854043962759
1.30602376600103
1.2897858198909
1.34620029651179
1.37516177382941
1.45282486570305
1.41081910158991
1.44345908438539
1.48284650186047
1.52871139204426
1.49080782095393
1.45616900038382
1.48758822818622
1.48331521000727
1.44922313085771
1.42510811157038
1.4597916296389
1.50186796951677
1.46735204090155
1.44836623947748
1.48466521340794
1.46330519468338
1.42894083095155
1.41802464585146
1.45276625401836
1.48511026920758
1.44935572100501
1.52497222101148
1.57720528395158
1.58749328549766
1.53468300879705
1.70032376219542
1.78855825301505
1.81565454973893
1.73543120288849
2.02980316252317
2.21310312482868
2.30249585859801
2.11152683021282
2.35949535916483
2.49033337640042
2.57887840035529
2.59388672467535
2.64095456601537
2.61697722125038
4.52539363782487
4.73707764657214
4.69256124438498
4.46001760472087
4.75157053899237
4.99961108964227
4.92266898331991
4.6461748642636
5.93730459172306
5.90266710532512
5.97057251444498
6.00709657155005
8.69318659778538
8.74414802733028
8.88976141061203
8.85815108489417
14.7786704122085
15.4471245193231
15.5153484646786
14.8418561959826
21.9547617500769
111.897643962015
130.416830621474
26.4146100434267
26.6494414029562
22.2728929454339
118.347960399609
138.523867012269
147.736171798513
26.9358805477838
22.657656638219
125.399884639937
121.469282787745
20.8996012275164
20.6683730799792
114.636166127534
108.122133742715
20.5043101715472
21.9705766853275
118.502968859577
117.872533195499
20.9481342949532
20.8447785139908
110.838618602918
107.592372735226
26.2217514117159
25.1121042970762
94.1854456065554
92.1578947005786
26.5656894713803
22.3476804754832
71.4843930579786
65.9415841836105
20.6963396928544
17.5070846048914
58.3827409966246
56.4700437214192
13.4949807539456
11.4885882577974
48.9822306053302
7.73025373225574
5.35720372861889
5.74393790977599
3.19079037333933
3.06390853268182
3.28836281669725
2.03416914421557
2.66765464699362
3.62117553428407
6.39506113539924
24.7252726410567
26.7267201907621
7.4923005107902
7.96117091637403
31.8110699994136
41.281693382419
11.6931739402165
9.72430261276878
36.9605925564857
33.2205862498878
9.78079581530883
9.0465216904548
30.4642964067315
36.081082239868
9.10869119730928
9.56372410840629
46.7340714485734
44.5083395839029
9.34186916633765
9.37826227195146
43.0991905529811
42.4701758166035
9.286204954374
9.20796050708332
42.6346248374169
36.1200160174576
6.78640666247386
8.26690384616439
40.1717651566726
40.1308979063874
8.23090351011888
8.23724378002628
36.7837698529083
40.0310238494261
8.51315563286931
8.22888239257496
31.2174497760142
29.0415688639009
8.44088552480699
9.4913290581392
33.3469262912998
41.4513933214244
13.9267058165917
14.6922331418343
46.016081000471
54.4724792257695
13.8045897651755
15.9727583811432
60.4027575807676
66.5097408695276
16.2582861826574
16.1614055505011
67.7220005991185
61.7105800730718
14.6414726900785
15.6248728418372
16.9691477639771
81.7717333785672
63.9351072992006
61.7621377837566
78.5274138110677
16.7196251919321
15.5059959666229
11.0967034792909
10.9864793884399
4.76790516526443
5.35903965948378
5.14643400629393
4.64279023140973
2.19962130881282
2.28848624766237
2.12259565416249
2.07854373863473
2.13956931971625
2.18310076922266
2.2584342985585
2.21224487611078
1.57031262096286
1.61087426881745
1.54695582697624
1.50566779889754
1.36863362852022
1.39426719172845
1.38840049582853
1.36809636288672
1.307885919496
1.32974539438254
1.41325978137341
1.37759685483786
1.35658122603514
1.3927476401771
1.48596153865462
1.43427839552097
1.47790273871245
1.52836938246108
1.59652064771738
1.55425326637013
1.51508873204712
1.54449016212474
1.61802933755773
1.58711866571611
1.55242564224675
1.59535429285847
1.53659379357595
1.50577558187659
1.49412726746373
1.53074444417392
1.58035880927635
1.54069619790016
1.50750316622941
1.54381430379916
1.52184805543214
1.48364793999788
1.46164046286006
1.49827042963395
1.53095516609319
1.49167247862677
1.47851528788329
1.51654616762679
1.6037440038543
1.55003194431651
1.56321494128644
1.61929914288089
1.81082475816394
1.72111001476426
1.76364420209005
1.84616247297101
2.22875786189799
2.04837698048943
2.1475602073194
2.33901896748877
2.53353680474151
2.3958507887123
2.43334013771177
2.57691931022648
2.6546433563905
2.68305174488894
2.72841079633835
2.69466487799424
2.73436137861958
2.77132551128487
2.81939506055189
2.77720726508838
4.87235583361128
5.15939706868089
5.07857942928276
4.7649417121112
4.97917541889805
5.29114393960057
5.20998767293747
4.87397084612485
6.10122652644363
6.0427745491412
6.10663557178176
6.21003801362575
9.05406465700118
9.06464668020225
9.26066539332282
9.28389187036361
14.9523320374457
15.6374156445996
15.8103997026685
15.1156405821409
15.3318207791842
16.0292937848461
27.2766805153714
158.216058090735
133.092802820125
23.1073888964273
21.1759372997529
128.578237606627
145.051836479187
22.5144096531699
21.6338199800588
141.347412316576
132.819668058073
21.2927072994586
21.0950653841432
125.026924157951
120.595209138316
25.2125610831342
25.6697876003789
113.839639472272
138.618761326345
30.708588385172
31.7327394060795
130.226372826789
132.078525187872
32.1439925947557
32.4359946058906
119.003662139221
133.124743867341
31.546441633063
28.4195247895831
25.0345736130192
27.0323264967523
109.66464337889
104.819787375922
26.9103561096933
26.3644813130047
97.4946891831617
94.2043554412043
24.8816441018759
24.4658462165711
97.2593701390841
101.722656641813
24.6249370176411
17.9272416073565
71.4835596635669
62.3292964248819
13.8245111914635
9.46908335530094
50.5708329261059
47.8790681664748
9.02667792239457
8.35342320430361
43.4620328121951
51.6994540788882
10.7747608236491
10.7209245665493
52.9122423844193
50.7316067993309
11.4951354874903
11.7742932566974
52.627102672081
55.1840588372821
11.9398410910535
11.0700276873945
47.3703242263242
56.0696337284188
16.3666711668427
13.9267547599874
48.2738292233271
39.0793159893584
11.6235852399458
8.50488090754142
32.02329470589
29.0205630053366
7.81905337209432
7.0266392157433
27.6783980477645
29.2243892207151
7.85033292146505
8.19710130633987
34.2608067076165
46.4265396052946
11.9471470332317
18.1309983257838
66.306175128965
54.2794922322943
15.8668057159227
12.724734351859
47.1381457609717
41.2204363138127
11.7235492074739
11.5152502419371
44.1648567661221
51.6596147238123
10.1415297028911
9.79190336529471
49.0304479504236
48.9210349050903
9.99874193790852
8.02483117384158
39.8168441978688
44.5498070401645
9.77062125120977
9.1217573660147
42.6495999966205
41.0675669892565
8.66218897969182
8.39217458130549
40.1713407719328
40.8964768342846
8.6804169188936
8.48160386054816
32.7582306625712
32.0186922747604
8.73274454291536
9.99019626200524
38.1422176748607
52.3275070162246
14.0793705383311
15.4377788172415
66.9663053778693
69.0925804899584
16.2385721579598
14.4746245798709
61.2387091089656
61.6819686483544
14.49504165138
15.593660937902
16.7213973100603
77.8319497438107
61.1118279253115
61.6449204025295
78.8286708558715
17.0189661395852
15.9677108711365
11.4427443531514
11.1662020928405
5.18062002018005
5.78179780905156
5.25139214143827
4.79323316328427
2.39710352471919
2.4858948265228
2.628461154273
2.51907488897533
2.29342083776074
2.36024455657104
1.71740518064552
1.65602221045916
1.58429250428455
1.64290309472093
1.49137124907548
1.4480734471171
1.44588658317959
1.48238029396222
1.61734534028613
1.55621733668074
1.47391937969666
1.52906421580804
1.57609271171853
1.53757557723555
1.64504528304476
1.66835073106342
1.5977414267632
1.57631324183218
1.69386725529284
1.71692185655886
1.70948368587867
1.65538520914592
1.79581516679992
1.85910685252486
1.7169069819472
1.68371846344936
1.62810814646785
1.67463238532356
1.59383072644953
1.5622113059514
1.63276768826249
1.66539358166664
1.63601284364672
1.59324626128037
1.54860054535321
1.58696154272333
1.55897923810663
1.51754496895132
1.55247103710016
1.59804358729807
1.56261980853775
1.52089140343949
1.50597835296989
1.54648448426546
1.62822339962395
1.57334915255643
1.59061708182837
1.65010729462799
1.8327653864049
1.7415008192298
1.79115867655295
1.8766701926421
2.24574063309122
2.067524745326
2.183835855009
2.37564480442927
2.41149216404885
2.21951737087544
2.47224485708842
2.62277186512239
2.6675284264288
2.51119519992465
2.55079417766418
2.7114574073535
2.75232890533849
2.58913320928176
2.86597677901605
2.81899154615231
2.86328059775989
2.91750256381698
2.96659862147946
2.9051046483407
2.94839533776631
3.01935786980563
5.4060083394342
5.08089463839063
4.97287628779891
5.32278291777281
5.50175764158312
5.17237054865991
5.05432257400347
5.4143668807103
6.16547423834153
6.32702831003799
6.44518093783084
6.21995693211696
9.46855379208399
9.54264923546357
9.82062340420825
9.67530155045287
9.86228898046718
10.1006460791587
15.5950852725636
16.2859962774561
27.6844260727113
170.12332843907
141.582107852701
23.6077548163491
21.5012183958704
136.106983421031
155.203457748792
22.7891309231929
22.172333941976
150.539542117724
149.649062774934
26.8589067550432
25.4903753234359
137.587726342546
128.419929725953
25.1448141246091
30.9093260747323
157.121967984763
143.135524626916
31.680888702671
31.5727949820024
134.242133508496
102.889297099259
27.2775049079714
27.0596339865878
102.87000609845
96.1114089405575
26.0476456141673
26.2910117089196
104.335139054801
101.966208063997
24.9625165304072
24.5957973958243
107.506119812615
103.615952664783
24.4489454488652
22.2271127442603
99.3070520346968
99.264676590395
22.3312095315286
18.6046938319216
74.5486097412
66.3288523823932
14.5073556424428
10.0586490751214
53.2638707106344
47.1172240816047
9.0751937359828
8.65774023362671
44.9575106769422
6.22409592977113
9.53320315942502
9.50607546326073
11.1290003856282
55.3035362974963
58.8171866023883
12.1182766943529
17.4147372517234
68.3319708139614
63.780513976109
15.9381522932907
25.3728532304519
88.3410053876434
78.1525037645776
23.4755681186684
18.0524980300535
58.5788279724371
45.8368437725519
14.38576834379
10.0560988146594
35.4586980151732
30.5215545489528
7.91783811832427
7.25492746996848
29.1254122805388
30.4238187445664
7.97510762398714
8.41231722346381
35.6316960096407
48.7941609976307
12.0541825084131
18.7374936563043
71.8857380422534
91.4208606871496
24.4684888049553
25.8277110234871
119.800904377891
114.071052999245
25.2050783055786
25.4800082210873
110.630013319694
101.296297628731
25.0603220531887
22.8849631825885
81.8867048941582
59.6721549819514
14.4132929962982
15.2730826446362
60.5976330695464
52.9318009936021
13.5827123674097
15.3322096235388
57.2585836842339
48.3276646530166
11.4639548449706
11.808200830354
48.8825872814684
38.577825124152
13.4634736099786
14.538847044401
37.2997496547593
44.4344191855473
17.2101653696433
22.0976279520866
64.6744453516152
84.2348694604443
22.1368409113004
24.8377807412858
91.1196494782517
83.3913005952679
24.3680080108259
29.7078775122209
33.6033215561922
133.292482983622
92.1573794931034
88.7886484579088
126.640214637139
29.9723753000814
26.9071313102732
18.015198107556
17.9090576246331
13.5935729694293
13.1377386996598
8.72177586991083
8.47916719532397
7.8315247600683
8.31120008093334
6.98721407293467
6.56012309410897
5.33635325311845
5.67688238175215
3.92784648121922
3.79855327982248
3.66533631900728
3.77346965898616
3.5438864867972
3.44498715027193
3.21846425555911
3.3059203994274
3.08011972585724
2.97637471247408
3.04333913726059
3.12527034444553
3.25496053686216
3.14474602087681
3.22887515439615
3.33200065703216
3.46617931501247
3.31400957908981
3.34479653294425
3.46672073546542
3.53425713369595
3.3603547959846
3.27566500690273
3.4059792502963
3.11735512384251
2.99139694937191
2.82528640670648
2.94090023745835
2.51861819683363
2.46997529449062
2.26176949633534
2.3535194528845
2.04730337215026
2.00321968765532
1.85929677934467
1.91361591856526
1.75979011479676
1.7253925419972
1.65869900820951
1.70405691085931