/*--------------------------------*- C++ -*----------------------------------*\
| =========                 |                                                 |
| \\      /  F ield         | OpenFOAM: The Open Source CFD Toolbox           |
|  \\    /   O peration     | Version:  2312                                  |
|   \\  /    A nd           | Website:  www.openfoam.com                      |
|    \\/     M anipulation  |                                                 |
\*---------------------------------------------------------------------------*/
FoamFile
{
    version     2.0;
    format      ascii;
    arch        "LSB;label=32;scalar=64";
    class       volScalarField;
    location    "700";
    object      p;
}
// * * * * * * * * * * * * * * * * * * * * * * * * * * * * * * * * * * * * * //

dimensions      [0 2 -2 0 0 0 0];

internalField   nonuniform List<scalar> 
207032
(
83523.5458180034
83537.1707208421
83558.7794096982
83536.1775812497
83522.7195816615
83512.8225083359
83500.8689924118
83492.0735406406
83496.0240604679
83507.495727535
83507.5688055019
83503.8900218991
83504.1552242067
83512.4160708226
83511.9676334001
83520.2050332071
83521.7199904869
83520.7052587431
83521.0251251084
83531.2893218051
83539.6151278925
83544.0894821295
83531.2506603612
83522.7836023009
83523.0153157441
83530.2009800136
83529.5262489027
83531.6599716123
83537.2562277444
83536.6196895945
83532.0709267841
83532.9198604187
83534.4186352665
83533.1660110632
83531.7478126633
83529.92303955
83536.3878716218
83545.5232787356
83533.0016921542
83532.9727292141
83546.0629467013
83530.7634788634
83528.2646573608
83532.9061219088
83547.87045718
83489.9073287132
83502.4500970092
83488.6617730304
83465.7484283308
83471.0255888138
83486.029470558
83484.1887267309
83459.4059820126
83555.477922741
83554.3214928638
83517.6230921048
83509.8631024805
83502.4799200288
83502.4910352267
83503.0281914786
83502.4580217138
83501.5097697558
83503.0902634664
83497.1749150367
83496.9485407448
83491.524043373
83490.0520018941
83472.1326674761
83488.7109934772
83507.6365943548
83501.78258327
83522.9760320039
83563.2552430474
83547.3840365287
83526.6203815628
83509.9441387551
83513.8241096265
83488.6990904939
83478.5466628202
83484.4768479097
83491.1707105959
83495.7434573167
83494.5889529703
83495.3503972821
83496.928896055
83497.0037901399
83496.6109708001
83497.9400718023
83497.7832504823
83499.6981723455
83499.936272703
83498.2693268169
83498.7739359727
83501.8751068335
83502.0633141459
83508.8185238289
83507.7911129039
83516.2175141587
83515.8035387502
83524.420840903
83525.4534522285
83533.4016415777
83532.6071105995
83540.5066458787
83540.9807877398
83535.4909511537
83534.8924697063
83541.1173374531
83541.6219928515
83536.6170740603
83535.7962308968
83533.522086398
83536.5025330015
83535.2901129288
83533.1707533746
83523.2509093676
83532.6498354432
83533.0157029668
83536.9872117795
83552.6594158668
83536.1661794834
83537.1365657372
83546.9993920087
83544.2762136342
83539.3947711052
83539.1799232733
83541.3010865989
83538.5242128079
83538.2158147916
83537.2093828646
83536.5845250593
83535.8380983047
83535.5800740947
83532.061596269
83530.7703383723
83529.4118049036
83528.2889397223
83526.9353144855
83528.2666727343
83528.9529862166
83526.775888856
83524.2175445844
83531.3039326108
83515.1034999454
83519.3037927739
83518.2080761844
83507.9016688346
83548.635365707
83512.8677063748
83505.8532310936
83501.8621284635
83498.9317128977
83496.8678256879
83490.569252177
83488.5593141295
83477.3365351319
83487.3578901129
83499.4559177936
83506.9080310446
83524.4036807445
83503.5530796357
83494.7238951678
83510.2435108117
83498.8102544365
83495.4012041376
83496.8059048934
83497.9409366514
83501.1056038394
83499.3135171781
83492.7852059645
83490.6029496836
83492.7917078376
83492.3156153597
83492.7623923564
83491.2079542614
83492.21465465
83492.7490693474
83495.0133831212
83502.9535654033
83490.1955151763
83488.6565037957
83498.2080458742
83492.686634475
83490.4867967219
83491.0314449277
83491.6658888547
83493.1468102612
83492.8122010008
83495.1517335174
83495.3597397581
83497.5005271615
83497.5882109153
83498.1622306673
83498.0865318195
83498.5071021218
83498.4252454759
83496.0912695748
83496.2714584292
83496.4067818341
83496.2331849486
83496.3913023032
83496.5667509218
83496.6777027493
83496.5523604128
83496.5825928469
83496.9441678696
83498.1744206026
83497.9898012991
83503.1683971208
83503.0257734755
83510.9983067153
83511.7354326129
83518.0595159385
83518.3003200812
83517.0377318202
83516.7228727597
83524.9101844907
83525.4839806402
83535.0922410946
83534.4950510526
83541.5160797499
83541.8041581335
83549.5880020289
83549.0479309817
83554.0448583192
83554.6219724176
83549.701130024
83548.9809499954
83552.3236516321
83553.5457242726
83549.4397007994
83548.3972386104
83543.0710460069
83542.933182786
83541.1447127283
83541.6987742405
83541.3419119844
83540.8707442107
83543.6919177334
83543.6383457292
83538.5849734446
83535.1862345447
83538.6425574293
83539.6826124139
83542.4382596038
83541.0566628604
83538.16082445
83541.3367001191
83538.7261568152
83538.5660522194
83530.7512029797
83537.0642257489
83541.9590166372
83538.8009748426
83530.7416973323
83518.1997666279
83504.4640812707
83489.1403603331
83481.4721068504
83473.2616736901
83476.6283765821
83471.948515733
83479.417623624
83491.8256726751
83506.2226222261
83502.217482309
83493.0092532891
83496.6409292587
83493.5003388223
83505.4448850141
83502.9281938816
83497.2512878867
83484.3459871204
83488.7389383684
83494.1397791196
83492.6806454119
83490.8870220255
83491.294784603
83492.0479388529
83491.8470657523
83492.2643304057
83491.2741351818
83491.4926397868
83490.279052602
83490.7462322543
83483.9248895682
83491.5586371328
83489.3743175726
83487.6100690569
83489.6869136981
83490.1547541722
83489.0551883388
83489.0374365306
83491.0211393638
83491.0561146591
83493.1577041208
83493.2208707276
83495.2693382256
83495.0581068898
83493.0681273085
83493.2227160485
83494.3624730139
83494.5766573513
83494.4079537114
83494.2153780856
83493.0801135652
83493.1246299276
83492.8572068248
83492.7424894012
83491.3345538154
83491.6261648566
83494.8583087233
83494.6435730593
83496.2842105087
83496.5132671042
83501.2129915891
83501.3702099303
83511.0021206536
83510.0736677352
83517.9555570466
83517.7245214595
83518.5357190221
83518.7737955397
83529.2912561343
83528.9397269646
83527.3989032434
83527.7531558472
83539.2270316816
83538.6884045567
83548.5625374131
83549.207990317
83545.9957753647
83545.3566450726
83553.3424244995
83553.6865282878
83561.111551903
83560.8663887113
83568.7730147301
83568.9522932362
83562.3760467382
83561.7823891747
83567.1797101158
83567.5809124418
83560.3138070485
83559.6452833772
83564.4621940957
83564.3693346521
83557.099558455
83557.2027494705
83550.7562231551
83551.2076883197
83546.1822439872
83545.6262355934
83548.1296748668
83548.483550974
83545.6256032444
83545.2924654119
83546.5454276961
83546.5967369223
83544.117722004
83543.5855403452
83541.4150522869
83543.4425532574
83545.2451387762
83554.030607007
83544.5669425804
83543.2283875229
83544.5801446004
83543.4263162021
83543.6616273168
83544.7869602835
83540.1914201705
83537.9805966477
83529.1278461235
83537.5421466633
83542.5266850615
83542.8526836977
83541.9207336657
83542.2264343586
83545.355563668
83541.3702271225
83537.3498125514
83532.5854696037
83535.0030277993
83536.2052349398
83533.1694963592
83531.1333850643
83533.3507758107
83536.7915603811
83539.8319795856
83540.3574046464
83530.205452347
83539.8956806986
83533.989114871
83530.5420529999
83530.9976278655
83529.6240868325
83519.4034715474
83519.9497278379
83521.8276121821
83520.9460782058
83522.7779665324
83526.4798645469
83519.4443724849
83516.4796653551
83520.8067143553
83526.6631449092
83514.0611048793
83516.9130133713
83515.7586558874
83521.4159714706
83523.6340649526
83514.8833573551
83514.7474280045
83529.5136784112
83515.1003373008
83509.2493899958
83504.3777629317
83513.3021812664
83502.9106128865
83496.8396802988
83485.3670428283
83482.7926201916
83480.137539446
83479.7485772397
83467.1873286134
83463.1301587403
83442.5506553103
83456.0055793392
83438.3765385715
83432.3019901404
83468.2783402623
83468.3937484436
83480.8041198706
83475.4596590033
83492.9871057123
83489.6680990456
83491.1398262095
83492.1901137962
83488.7435384394
83488.2983045489
83490.7812021005
83491.7852172318
83488.9365290452
83488.7703270356
83488.6359403925
83488.3384731903
83484.2974757322
83488.1337030845
83487.3730343342
83486.8137037791
83484.9080867013
83485.2388970794
83484.8456284474
83481.5322437508
83487.0950934156
83487.2448739072
83486.1043399462
83486.7280343627
83477.1248074655
83482.2252747246
83483.102461515
83482.3041674676
83485.1944212403
83485.3952054208
83487.1130957578
83487.0558689673
83488.8732712843
83488.924991665
83491.0451802536
83491.0740802636
83488.590964848
83488.9366716567
83491.7549653691
83491.5518058653
83492.9069210741
83493.2759548829
83494.2967493883
83493.5870098462
83492.8889173908
83494.2749289393
83488.8348543151
83489.0779825786
83488.2018310598
83486.5243747927
83491.4066399535
83491.9831080097
83495.8531328614
83496.1136924
83506.1283569179
83505.5812907037
83511.6508884308
83511.3040897851
83515.560295507
83515.7964150661
83526.1291498891
83525.6167338673
83528.23728898
83528.667051834
83542.9196737943
83542.5048425295
83542.3331592129
83542.9083265925
83556.6420274771
83556.1314353158
83553.3365745911
83553.9401578947
83564.2367882894
83563.8835477139
83558.6553538731
83558.9622341992
83568.272149651
83568.0725094066
83577.3715402499
83577.4596425755
83587.0489334175
83587.1262116911
83576.45779397
83576.4749784003
83584.1224146448
83584.3589146067
83573.8339823175
83573.526513989
83579.3650851806
83579.7024508307
83569.0060326761
83568.5089663593
83560.6190501424
83560.9445308659
83553.6682087122
83553.6146692664
83555.6369833405
83555.7447608832
83548.9787875317
83549.309732099
83548.7671474218
83548.9892809654
83545.5611836686
83545.7023588416
83546.8183674828
83546.1403707281
83544.3204244816
83545.7687821177
83545.043027637
83545.0580641369
83544.4733041134
83543.7546283265
83542.7921947808
83543.2230012036
83540.736832342
83541.2566759664
83546.2125016337
83542.9697165251
83540.2824672664
83543.2770145126
83540.4089524571
83537.2557162763
83531.0604970886
83533.417406705
83523.0572263631
83529.4538542559
83523.4271777331
83519.8613473502
83514.9155398975
83514.5239112313
83502.2086531073
83502.8923759497
83509.5980445941
83508.7427098672
83512.1466853292
83512.8284644438
83504.6125743577
83503.7354036255
83508.9523450516
83511.4927088235
83518.2234102291
83514.2381314373
83504.9897774524
83505.1143795761
83502.8560074747
83500.1122311152
83492.8044320626
83492.8367297373
83487.4616936792
83487.4530223256
83477.9931164695
83476.9982517488
83466.7113577749
83466.5183327155
83454.7136365722
83457.153856884
83450.2094903756
83447.0655454712
83429.1102310022
83425.3398479197
83429.1856217295
83420.5848125945
83407.3970050147
83408.3921554312
83384.6467027373
83385.352864879
83428.5406230834
83428.2554504484
83458.4359600119
83459.5542280328
83474.1176976475
83471.7038591546
83482.5965796629
83483.1491048807
83479.9875685422
83478.6801740714
83485.3073213922
83485.6853780419
83483.5151364974
83483.0312342136
83487.8407928247
83487.1919129427
83485.9885000477
83487.1521997022
83483.5935161826
83484.310971234
83483.2354445722
83480.4511362545
83479.6410902377
83482.8869117668
83482.8292742203
83481.1280868286
83480.9669879688
83490.3984106232
83486.6008019258
83484.5610260269
83487.5286552933
83488.5018344149
83490.6946874219
83488.9712536791
83487.1206274876
83487.9224114982
83502.3777789184
83492.7983946692
83504.0517816284
83533.1645742519
83538.4993215172
83497.7144889596
83473.687679945
83447.4607248099
83460.8683453993
83478.2721681571
83482.059405723
83478.6197307706
83475.3578982759
83468.6321071201
83479.577316816
83482.8618059265
83484.7832393597
83480.9530077894
83463.840619631
83476.8208921123
83476.6627578989
83461.2096425972
83485.8180103078
83486.7085894989
83488.2245289429
83487.0457265504
83485.7397375336
83487.6317219425
83488.5804318695
83485.9857019157
83489.9881800134
83490.9192193184
83490.4885237707
83490.2525814666
83494.0594606376
83494.3908841992
83500.9660590114
83500.0749106241
83506.9300319459
83507.4449433298
83515.933689934
83514.9555851612
83519.8239934318
83520.5799464357
83531.9692819482
83531.211457691
83539.4306040847
83539.809096621
83560.5856760182
83560.6958317952
83564.7149527539
83564.6912882005
83558.8117679101
83558.488645402
83571.4370907549
83572.0003311674
83568.4896897927
83568.1859355314
83580.8659092377
83580.9709653296
83574.9502248777
83574.738913375
83586.1591069158
83586.1679476776
83598.0062000063
83598.3727625499
83610.9569926191
83610.1757614898
83596.7559947543
83597.1469287672
83606.3799649982
83606.1067725758
83591.2991652197
83591.4902420934
83592.0903748876
83591.5909924381
83593.4066696971
83593.4921284045
83586.7861051798
83586.8230355394
83580.6437185276
83580.7092983205
83574.9945196528
83574.9851760476
83570.1593907974
83570.2452754095
83566.321469421
83566.2320834582
83562.534765687
83562.6061494492
83559.5635103039
83559.2780306366
83559.6800468104
83560.3506591901
83566.6574942952
83566.1185668749
83568.977704221
83569.5706096523
83575.3895729128
83574.8804214633
83579.3883618152
83579.9376571723
83587.3985926135
83587.1168088412
83587.1105342257
83584.1183589002
83590.848461418
83591.1604497974
83589.4189145397
83588.4885649177
83587.8987110382
83586.628670832
83582.1074254919
83569.9165783892
83556.4082727093
83532.2169791337
83522.1202736962
83494.248876957
83463.3737394702
83449.5058111202
83428.1355251385
83421.9027889529
83413.7984792132
83413.943775675
83448.4910693419
83450.8370337582
83469.9836796974
83467.3975196387
83463.2568335551
83465.6616582599
83477.0001699808
83475.6093077192
83474.8290544112
83475.3831071317
83481.7061500264
83481.6038334566
83481.1611525605
83480.7609880471
83481.2278095178
83476.3129496962
83475.4275010735
83481.8147974079
83484.1552060969
83485.1271807558
83451.6741995452
83476.4344913912
83488.8427320473
83473.9551601053
83462.5582920396
83491.752746766
83498.7164309994
83483.7559160824
83521.0120863128
83507.1639921237
83504.8247850617
83506.4596003596
83505.0491635452
83505.6600517928
83476.5923283489
83493.9588011822
83494.7483501926
83483.5249483498
83528.7742484427
83522.9968749917
83514.9328280317
83514.4126772902
83508.5454979461
83509.2537674421
83513.2479442226
83512.3733126513
83523.2531544474
83523.8504992189
83533.4895600706
83533.2610171412
83539.1115281074
83539.3234875146
83548.3955091341
83547.9968371009
83557.4324136766
83557.4992810817
83570.5494886083
83570.7653677136
83581.5057895107
83581.4133529906
83588.0769095341
83588.0111802836
83589.9243060614
83590.1946973673
83590.4066853385
83589.9035308637
83585.6416285848
83585.9317977237
83602.3303452669
83602.450460019
83595.0712622379
83594.9021325404
83609.6557452335
83610.2473617632
83625.8562206897
83624.7525916436
83639.5696502811
83640.1044614935
83622.2984947592
83621.9209149592
83622.860582544
83623.2365907175
83625.9617684519
83625.9621956427
83616.4407756959
83616.3893136825
83608.4729856472
83608.4606911679
83599.9891484919
83599.9855759081
83602.0539488983
83602.0680623813
83595.6172049821
83595.6573312647
83587.8769872779
83588.026453807
83582.2072792531
83582.1926424755
83575.8130578583
83576.0141360126
83571.3799144884
83571.3071068802
83566.7978634035
83566.9493838573
83563.5029513334
83563.5401264895
83561.3635090479
83560.8736106117
83559.764002223
83560.21274477
83554.6535236339
83554.4840429447
83554.6533520855
83554.6036864365
83549.8509477105
83550.1759822924
83550.8002124788
83550.4872681079
83546.2309617616
83547.0262310279
83545.8760878762
83545.0373872106
83541.5509398219
83540.2832693409
83541.9090256574
83542.9543603346
83541.7381338321
83540.7369271211
83539.2087323198
83540.4600797314
83537.6347643696
83536.8023853338
83537.8249713813
83538.521825671
83534.558660694
83533.7793530801
83529.7623013245
83530.5109619668
83533.1698525582
83533.5630070629
83524.8075178322
83526.5555130499
83517.5446065844
83508.875156453
83525.3122135101
83523.9822476436
83528.5876925464
83522.03206889
83506.4110815361
83491.0568004786
83490.3599929889
83490.5507877091
83499.7387758867
83498.5391957911
83486.6181949059
83486.7762094221
83494.8105091026
83494.2878141452
83499.3774577985
83499.8063509482
83499.3930176842
83496.0295045888
83489.1393196025
83485.5482691691
83456.9277546677
83438.9261023064
83393.1004279495
83390.8124669451
83402.4546134801
83356.6733245228
83353.9646997953
83331.9147618432
83328.0581210309
83324.3945810537
83329.1059420274
83360.9065952371
83355.9529565615
83338.5744209071
83342.8665012769
83400.52287192
83401.7171258918
83440.40740137
83441.7843817767
83432.9609860278
83431.0195007861
83466.6517772327
83464.989843823
83470.4779581226
83469.9003366616
83487.1104239692
83475.0356717485
83475.9632491527
83477.1729402828
83487.6728313332
83479.8812686572
83482.7640293665
83483.8042316343
83466.9283105618
83480.9457774745
83487.3384600038
83481.8797367922
83526.4002158697
83496.4641211455
83500.3677580518
83493.1408606863
83532.4640910997
83517.219385336
83523.6683873065
83550.2639170355
83544.4298400353
83520.0117057704
83512.5869763739
83524.6948308172
83516.1703820373
83515.9583910055
83512.1133104923
83511.6691737613
83505.8566586858
83506.6589544365
83506.4379736106
83505.0757669295
83507.5311359592
83504.170956229
83500.1006493907
83501.7705137249
83503.4132734162
83503.624725642
83502.7456619886
83502.3947717772
83503.3609748882
83504.230836831
83506.6946579069
83505.6063005109
83507.7036705749
83508.4991216063
83518.4812751475
83517.9011417757
83525.5333530357
83526.0384203358
83528.8816257607
83528.6694083329
83538.4761890121
83538.6296787271
83548.6347188354
83548.6311049694
83558.8438330218
83558.5434200622
83569.3055794518
83569.9238055131
83585.4833694301
83584.8919284444
83599.5405199126
83599.863861019
83607.8278848175
83607.7247694001
83610.6841187086
83610.6581244178
83609.2665904619
83609.3541635791
83628.5187587289
83629.7798495311
83620.503421381
83619.5263265126
83637.5253488034
83639.2919235182
83656.5022377765
83655.4663592949
83659.8550363274
83660.4234789303
83665.0665420115
83665.0704297816
83654.0678270448
83654.0043953166
83644.969753239
83644.9445951257
83634.1998724229
83634.0670955844
83636.7359766464
83636.5757351579
83628.6894331073
83628.9483383216
83618.3877629958
83618.3260797203
83610.9734241171
83611.0799434429
83611.4339174502
83611.293559765
83602.9229176783
83602.8767581887
83596.32614253
83596.3365822081
83589.0837414963
83588.9690298936
83583.1149543558
83583.1440976534
83577.0686786815
83576.9045047897
83572.0178479579
83572.132722773
83567.498796682
83567.3101828632
83563.4937551739
83563.3104234915
83563.5602692058
83563.6272037756
83560.8434312819
83560.4823930919
83559.7732888664
83559.9186261896
83560.6361569568
83560.3535309895
83559.546622892
83559.6250117869
83554.7654935364
83554.7804008029
83553.7352135956
83553.8002210631
83549.4683176467
83549.8069466406
83548.373852789
83548.0830432632
83543.7155201516
83544.5000223305
83543.0205544738
83542.2602685231
83539.2791392427
83538.2522828004
83539.5904585475
83540.4781163355
83538.4763575196
83537.2493969042
83536.385081393
83537.6712459508
83534.7131777679
83535.5194101247
83534.2178770403
83533.3550282147
83531.0192261163
83531.2970928138
83534.5108539086
83534.2844449327
83536.1875279088
83536.6402181727
83532.9626662156
83533.0181553681
83531.4292065062
83530.6683189641
83530.8465408107
83530.4144575897
83525.1517115544
83525.5534833602
83525.2231015907
83524.0690995215
83518.0423415449
83520.4122238799
83506.4678523097
83495.4095001329
83488.3839472837
83494.134786742
83479.4591577337
83478.561037951
83462.2807721855
83462.6581750001
83476.3566581855
83476.6805584476
83474.0342094724
83467.6711652762
83453.6408357915
83445.7271552966
83440.3075233379
83411.0413578606
83390.0637364999
83358.3542081272
83308.4690514005
83318.3925616089
83326.1369272371
83321.4833460469
83312.2010621464
83301.7577726786
83303.2506298939
83287.7983625012
83292.1543230239
83312.5909683808
83314.8511521394
83348.3018492837
83341.8086675579
83380.4099079143
83374.9293937681
83382.6801322565
83388.7831351734
83386.1762293607
83382.8655393299
83417.0962671901
83415.925836517
83435.1872609841
83431.3404645834
83461.2753662608
83458.3990478775
83458.0590111913
83460.0736419565
83465.5264246106
83461.610048458
83462.9837639313
83464.8901305315
83485.0160776635
83479.7570298563
83488.3492207422
83498.8797634358
83492.2988469756
83485.4245391166
83487.3215021466
83489.8286430217
83487.2471613675
83490.693625167
83494.7096191302
83490.8865461455
83513.6225806725
83505.272758304
83513.7378086688
83531.8373826846
83507.7984150535
83504.7505757602
83500.2012498626
83509.4912252857
83502.0498056427
83497.6218754286
83490.2017697171
83488.0817651388
83495.0113240937
83494.2502121309
83497.4698219412
83498.3512260518
83497.8563989618
83497.3260630599
83489.8012143193
83490.8711953998
83493.17753995
83492.0100563335
83499.0183647474
83499.949377677
83508.0542234343
83507.5497155424
83518.3298550787
83518.9045455817
83531.705947453
83531.5696605837
83544.7205804838
83544.7334715461
83551.235008605
83551.3675378575
83557.4822235468
83557.022757597
83580.3673589207
83581.5006355834
83601.457629226
83599.9683614421
83618.0853161193
83619.7993648011
83629.5104480002
83627.8020672153
83631.109314366
83632.6296209463
83655.3988428785
83652.571304835
83648.5728167073
83650.9093310845
83670.4014632419
83668.8163845453
83674.9796310806
83675.7308682297
83681.3156944095
83681.2368758028
83671.9969490169
83671.9143587619
83674.2918918136
83673.492971059
83667.7221247235
83668.5362011624
83656.3473944407
83655.967919555
83648.0221598425
83648.4874460518
83647.652451385
83646.9581397592
83636.2828984413
83636.6971324943
83628.7688453922
83628.4019756387
83618.7365439323
83618.8870014601
83616.9384924941
83616.7469612279
83609.6369696331
83609.8394650814
83602.1508141043
83602.132075414
83595.7117486093
83595.7699204852
83589.1278383341
83589.1365347051
83583.2408287486
83583.2849174756
83577.4911871251
83577.527087617
83572.3776827177
83572.3526893208
83567.5086441049
83567.7227058415
83567.6596423358
83567.4919085299
83563.4939377721
83563.3576721635
83563.3770882504
83563.3996420498
83562.9731827449
83562.8676646447
83562.5500787926
83562.5549608186
83559.9613045659
83559.6728017883
83558.5460199154
83558.5979201058
83558.6312781233
83558.3347794207
83557.0785389862
83557.1234967741
83552.4393340739
83552.3039198241
83550.6643733312
83550.7980763999
83546.5381239484
83546.8369697937
83544.8654515465
83544.6042270411
83540.2805912245
83540.9930072232
83538.1921674148
83537.5293276924
83533.7834460316
83534.4156605513
83531.5732410381
83530.7272843357
83529.2443281619
83530.2099742777
83527.1839696818
83526.6927065489
83522.659471559
83522.4869706216
83519.0689032467
83519.3367320281
83523.2442704728
83523.1813016446
83527.3049538447
83527.771858454
83522.5703303631
83521.4964485391
83525.5703845409
83528.361420282
83524.7539019275
83520.8733661333
83516.169182646
83517.5101202835
83540.1614051079
83526.6720974877
83520.4599811921
83510.9810593484
83532.0853878669
83524.4557519713
83521.1334624425
83515.2740632107
83520.3316020157
83528.1285887871
83515.9813450917
83517.0824894766
83509.5959245896
83518.4437730365
83506.2945528614
83500.3065150559
83485.9504033324
83484.6806732228
83483.1325332075
83479.2282457485
83465.9597412167
83462.803992726
83446.449643397
83447.1792306577
83435.8882449934
83436.0892193522
83450.4812517142
83451.7526462855
83436.6490057306
83432.0752303528
83433.0938129376
83427.0686447925
83406.9380343479
83410.9424050272
83406.0729858826
83400.3911110933
83369.0423950742
83367.3408861632
83346.3473313289
83346.0099207048
83332.9840517446
83328.503567706
83303.4177330872
83310.1192336547
83308.4952099928
83307.2908668101
83325.4686785065
83302.8843345845
83295.2750739435
83308.088054043
83324.3916471038
83309.9364287182
83300.8482118666
83310.9676822477
83301.8792641231
83293.442091762
83288.6653242551
83300.1100339233
83291.5148900892
83281.537387227
83273.0272552288
83279.1508197488
83291.6997803955
83285.9707555015
83312.6367278599
83322.2460115738
83320.6990565132
83329.8012994591
83326.829200913
83317.0626396159
83315.9130779061
83316.8074249112
83353.8434279667
83354.0742465815
83347.4316998417
83347.748981203
83341.1954629603
83340.912080067
83334.3040848621
83334.3516789827
83380.3349311481
83379.3979297807
83414.6699210657
83415.8111355801
83442.1799422797
83441.8919546945
83444.858275836
83445.129775666
83452.9440031201
83453.451507735
83459.7249054164
83459.7711364173
83468.1999737953
83469.0773583833
83474.0880278119
83473.5415870187
83482.2961755647
83485.1277727526
83484.0660772252
83485.5711479752
83488.5153600458
83487.2182779041
83478.20081605
83479.8921546528
83483.9184209297
83485.4197844075
83482.4115809362
83480.986600348
83467.9684180435
83469.7558125341
83473.3346430478
83471.5821593562
83481.9159628659
83483.0364929189
83496.752056474
83496.030812921
83513.8670552256
83514.1368733753
83535.1649850367
83535.272475707
83533.0276760723
83532.7508955543
83560.2498085942
83561.0071293159
83591.395137059
83589.9915784388
83614.676752061
83616.6843030638
83639.646590943
83636.9550605103
83649.0304802107
83651.9831436101
83672.3858670402
83670.1582585782
83674.3580916946
83676.3926440962
83685.9855717712
83685.1305926944
83689.6944644332
83690.0944682778
83685.839499
83685.6204640444
83684.6168356668
83686.1476517655
83684.0472631916
83682.6731425562
83676.4548441337
83678.356691682
83671.4169753444
83669.9864434921
83665.2310288741
83666.3856080334
83655.5955624693
83654.7606008203
83648.8711817686
83649.6472079779
83642.3888954319
83641.7407546034
83632.5342863571
83632.9466004404
83625.495131573
83625.1456071588
83619.7182436097
83620.0843265031
83613.0233249757
83612.7820008258
83606.6230341858
83606.8394837484
83600.2244979394
83600.118651238
83594.2482168412
83594.3419829712
83588.3215654428
83588.2948196852
83582.6790255509
83582.719746962
83577.3354760365
83577.3470073443
83572.2928196065
83572.2657252458
83571.8343159395
83571.8853998379
83567.4124242843
83567.2204846832
83566.7619635592
83566.9004698338
83566.2353270964
83566.0740713748
83565.2231534669
83565.3170779568
83561.7152279771
83561.7993295046
83561.0849262477
83561.076926346
83560.0413214873
83560.129912605
83559.247367204
83559.2350592842
83556.6632545479
83556.933659999
83555.3654706474
83555.3319182565
83554.815573544
83555.096231372
83553.5206835792
83553.452212421
83548.7998360487
83549.0734197253
83546.694875663
83546.3135244075
83542.1702317604
83541.9070329404
83538.2172672865
83538.4448430636
83533.3474667617
83533.2141588156
83528.7488586397
83529.3606602809
83526.4253437687
83525.5297985007
83523.8833305075
83525.0208362946
83521.9206435601
83521.0351922731
83516.7111755431
83516.8807416029
83513.2839575591
83513.8415050961
83512.1846724499
83508.3794911725
83513.9910283415
83514.6311357806
83517.9334360205
83517.607636276
83511.2995293995
83511.3579801436
83505.9862220241
83506.1482534311
83509.0666964513
83508.3371071334
83501.2758237019
83501.6931958441
83508.5114818681
83509.23416874
83503.7651839434
83502.1378824852
83510.2642668361
83515.3386680118
83503.5346486148
83499.7378546768
83493.0533837766
83498.8185827409
83489.7859199447
83486.6432202788
83478.472563834
83489.0999694791
83466.3304328911
83468.0657629335
83452.2857080007
83455.5349948486
83431.032596953
83429.1633657599
83414.6407773228
83416.2838302403
83399.4052197834
83396.6390780463
83420.6367845775
83423.1051169926
83415.5833701866
83402.3763919507
83372.8997964065
83379.2384354432
83380.9831894063
83356.857243656
83354.7077122895
83330.9967687129
83334.2297511046
83324.1849686379
83323.5013742911
83306.2661399267
83302.8806068098
83307.6970370094
83301.4780744575
83298.0744599314
83306.4516367385
83288.517513459
83284.8904957154
83279.0968828514
83280.7631038412
83281.9761051357
83277.0131918551
83286.1290942688
83292.0080437157
83286.3409135524
83280.6101387659
83277.3941134341
83283.8039190985
83278.7116942216
83272.4495461706
83265.5024368929
83266.6880109333
83261.5764790491
83261.7876054544
83256.9357198254
83256.7950879262
83262.8664594912
83260.3270909332
83264.227059974
83265.4876729038
83267.636143349
83259.8704651512
83255.4821318041
83252.0180450683
83286.7821483876
83283.3097399193
83270.0591268031
83272.3857660752
83253.1975618392
83248.7010945174
83228.3978843377
83232.9330552962
83283.7998219776
83280.4425008815
83265.809739942
83268.6825883749
83250.5989675278
83245.0192840042
83221.1176512402
83230.8888450034
83210.6003775894
83199.4461912194
83181.19939202
83188.9718928524
83216.6637051706
83210.72723613
83207.8298026639
83209.7795015615
83207.5077867665
83206.2905103308
83206.5327233466
83207.2997492358
83208.0066546113
83207.3148399576
83279.1084805152
83280.6039929178
83281.4437851838
83280.0632573934
83283.3843934356
83283.7609278778
83308.9270838855
83309.9142228126
83315.8329664944
83315.2911619764
83325.182436841
83325.3171867462
83338.4469620624
83338.1834360829
83355.3137099521
83355.6335567749
83377.1006577034
83376.2183442052
83399.2459660394
83400.4148863127
83425.9026660664
83424.3376308347
83447.727604305
83449.4368863679
83472.2226210163
83470.2321845555
83488.2266227577
83490.2421220827
83506.4520066426
83504.4260916693
83516.0716120327
83517.8633564143
83528.9967029571
83527.5076651103
83535.6213067447
83536.6063466293
83547.6485007811
83547.2353266557
83560.3355900455
83560.3205064369
83578.8178889453
83578.8255597812
83603.2529523165
83603.7259211771
83625.6806403763
83624.646487368
83641.5474493731
83642.7070628415
83646.4943898854
83645.4080275211
83644.9102222228
83645.7897797221
83639.4234100168
83638.6927465544
83633.1728971508
83633.7901915843