/*--------------------------------*- C++ -*----------------------------------*\
| =========                 |                                                 |
| \\      /  F ield         | OpenFOAM: The Open Source CFD Toolbox           |
|  \\    /   O peration     | Version:  2312                                  |
|   \\  /    A nd           | Website:  www.openfoam.com                      |
|    \\/     M anipulation  |                                                 |
\*---------------------------------------------------------------------------*/
FoamFile
{
    version     2.0;
    format      ascii;
    arch        "LSB;label=32;scalar=64";
    class       volScalarField;
    location    "500";
    object      k;
}
// * * * * * * * * * * * * * * * * * * * * * * * * * * * * * * * * * * * * * //

dimensions      [0 2 -2 0 0 0 0];

internalField   nonuniform List<scalar> 
207032
(
0.0157619237009583
0.0167961591210831
0.0219875375906708
0.0209310966750894
0.0164764076658124
0.0163987728253537
0.0205332595524797
0.0198798111560773
0.0195109942646009
0.0156667859408117
0.0160019780206765
0.0154894994912936
0.0153164976505111
0.0153811744359013
0.0155490049469953
0.0161354209752197
0.0207216384737191
0.0205281096433076
0.0157371607318607
0.015830255031386
0.0218653546308903
0.0218089207861698
0.0162939453111465
0.0156319861298759
0.015442955324845
0.0155156359766371
0.0157280098725837
0.0165271741443788
0.0229435345161262
0.0230974562518186
0.0159824505766661
0.0168293464575386
0.0242155778190012
0.0240203727042314
0.0173595148918902
0.017343937848759
0.0247594204117042
0.023347826225597
0.0169338497513554
0.0170335059028599
0.0230869414543148
0.0223087554136933
0.0170935112351529
0.0169634228303547
0.0207073285530638
0.0194003580334857
0.0165805666441894
0.0160014062916381
0.0184433261827392
0.0170955702523135
0.0154593822136249
0.0151585884728984
0.016335231547775
0.0157529014912889
0.0153139956441938
0.015025786213603
0.015062256394482
0.0150487552863762
0.0150141975545302
0.015010468005598
0.0150068862882545
0.0150209024715505
0.0150425425022334
0.0150806500787485
0.0150462724364298
0.0151573865919917
0.0163774705258913
0.0164072606566463
0.0151733397948104
0.015055811183278
0.0150424535963134
0.0156348906917807
0.015716744538172
0.0153049614814235
0.0153151788534946
0.0150205610577503
0.0150220947457617
0.0153518041004626
0.017136830272094
0.0170256866863872
0.0152768160333803
0.0150892961517247
0.0151442356370403
0.015158370646649
0.0150977904835814
0.0153752230801424
0.0156016313495302
0.0156202020433841
0.0153897445937828
0.015267053839116
0.0154094350769482
0.0151769972903715
0.0151111978095994
0.0150777456990918
0.0151146422629108
0.0151933275609358
0.0151284889028916
0.0151791647883009
0.0152431348517955
0.0152884450874657
0.0152323598325183
0.0152892321356183
0.0153559324003381
0.0154808279351155
0.015362853373023
0.0156933080342202
0.0159886223236203
0.0163550459730681
0.0161065005404405
0.0174188679432689
0.0256701744239374
0.0253540631951511
0.0178643459641255
0.018015673552957
0.0259589690898546
0.0252797195823965
0.0175777437754101
0.0178956301004836
0.0261742605187446
0.0269918707052379
0.0181228622337949
0.0182589083921208
0.0265715609710134
0.026805885109738
0.018403472820392
0.0181345840816952
0.0273414330494022
0.0300878630340599
0.0195045852260634
0.0192229866255298
0.0290584603445653
0.0285368305094064
0.0185523947170171
0.0183663386038475
0.0303880576601595
0.0293159138915722
0.0176895567468218
0.0172662178711453
0.0263665338337788
0.0242388387335212
0.0171396004792418
0.01676505944835
0.0232767761308689
0.0217035388990849
0.0166907140658738
0.0165092528848142
0.020385796889106
0.0191283036971545
0.0161765307391301
0.0164380045623309
0.0202472627318863
0.0181784162919239
0.0158001084303964
0.0154920570152985
0.0171666850088285
0.0164044987743903
0.0152255719288104
0.0150576703608947
0.0150234718368685
0.0153197462317545
0.0158162705789377
0.015812996940627
0.01528501257165
0.0150104145559916
0.0150322240668778
0.0150185871249354
0.0150071929201195
0.0150120210707386
0.0150339957499062
0.0150384848062407
0.0151231400949083
0.0150924568330832
0.0151789037340678
0.016397581966172
0.0164203124294818
0.0151141970290527
0.0150151746088598
0.0150033124997449
0.0152869458964897
0.0158169608882925
0.0159095676970391
0.0153427519440367
0.0150009897031376
0.0150115679967922
0.0150063083310548
0.0150037256451406
0.0150018064709231
0.0150037407122508
0.0150080293156187
0.0150030740181283
0.0150046855619429
0.0150159535038418
0.0150104670229387
0.0150040488143637
0.0150026492942147
0.0150036559276157
0.0150007382820317
0.0150004765835391
0.0150010962987898
0.0150024462949087
0.0150057246070099
0.0150025152324384
0.0150068406768755
0.0150179809874261
0.01505899464492
0.015029794482559
0.0150142188992367
0.0150235774850656
0.0150649657993704
0.0150467997907606
0.0150709534921305
0.015088549837445
0.0151206493497736
0.0151056552240666
0.0151421680520797
0.0151758037485265
0.0152163705162073
0.0151816207809096
0.0152268558585499
0.015262532162564
0.0152782362379706
0.0152419263964065
0.0152986497141491
0.0153510944259793
0.015370442574317
0.0153171230572758
0.0154557473864213
0.015596400253294
0.0156362938861756
0.0155170831005439
0.0161645840006353
0.0163876377288158
0.0163733339048685
0.0161633734320903
0.0179796063543295
0.0181430395921241
0.0182729523326407
0.0183031129040997
0.0181268568246048
0.0181071227956898
0.0192372969399617
0.0306322869788764
0.0315728396139594
0.0194717846497857
0.0196240386568142
0.0350533785401321
0.0332720256173485
0.0194319947254579
0.0186558509521728
0.0320887225159397
0.030430114627677
0.0185422885956569
0.0166986798629753
0.0160870328320899
0.015931787051749
0.0158924931941492
0.0158395525122354
0.0159638096478975
0.0159728921124077
0.016282830301515
0.0256617387552234
0.0242209191783006
0.0161989784181286
0.0161531873847941
0.0229097873952239
0.0216679652162743
0.0161313814627101
0.0160857383715169
0.0203386994815767
0.0203442891058438
0.0160671695626728
0.0161552603368474
0.0196495764955901
0.0181937152555497
0.0156976025128251
0.015384733349516
0.0171657350912062
0.017190884320007
0.0152429341140248
0.0153714571820601
0.0174192916011355
0.0165754968270939
0.015158583365267
0.0151338730529831
0.0166614197173153
0.0159604072112392
0.0153731550033907
0.0150032600914389
0.0150099549945161
0.0150066020479776
0.0150029616368898
0.0150016712961528
0.0150036780137716
0.015003766000649
0.015001659968943
0.0150016152378706
0.0150041411351942
0.0150047243975081
0.0150015627682728
0.0150008244742818
0.0150043781682565
0.0150023157317186
0.0150016730070508
0.0149996688386525
0.0149997710969835
0.0149995453281715
0.0149989941186475
0.0150016607386224
0.0150044057656071
0.0150185732837269
0.0150103667690408
0.0150073571994526
0.0150097424272267
0.0150311059089079
0.0150222884624042
0.0150568742392455
0.0150749664987752
0.0150947300519682
0.015080870709798
0.0151134500192283
0.0151235363977806
0.0151130718514979
0.0151020359782906
0.0151351584403115
0.015145241523152
0.0151560377254485
0.0151407410815906
0.0151752626647903
0.0151892879564103
0.0152078007761616
0.0151929046207777
0.0152438665318315
0.0152787689096772
0.0153001148836962
0.0152657011325865
0.0152858249347229
0.0153200447914065
0.0153398578636445
0.0153059922883969
0.015368824644988
0.0154297293400877
0.0154496279288083
0.0153907443180519
0.0154803364729557
0.0156068663549248
0.0156205074549789
0.0155046772841194
0.0155565466096314
0.0156610263338028
0.0164277294406726
0.0162304332822184
0.0162192701032887
0.0164118958596775
0.0165625290610391
0.0163922050201414
0.018236261338207
0.0181926730597057
0.0186363893198676
0.0187414326544331
0.0208602363389681
0.020068994757188
0.0356822801852699
0.0379128572758511
0.0429904680592174
0.0392416439176495
0.0201305681822097
0.0214765638235624
0.0189339798365415
0.0193197736605311
0.0193262210280252
0.0189618860814612
0.021401174614427
0.020231177553055
0.0419579817771083
0.0458033791149986
0.0440606557275021
0.0208658390147002
0.0201147352449994
0.0417078764212618
0.0433011957125547
0.0201309642519633
0.0202116333455067
0.0436469852201635
0.039057939124441
0.0202229101411764
0.020230479117727
0.0398106173195163
0.0364010351510918
0.0202202664753956
0.0193899997477081
0.0360063959881574
0.0339097690391612
0.0190338316297481
0.0197340952957585
0.0340828909311485
0.0339247856578987
0.019549393435608
0.0179943840217276
0.029830108038589
0.0272774256464242
0.0172358299026019
0.0168620378286918
0.0250487055044104
0.0244711971404907
0.0166557157941963
0.0166295339571516
0.0228750697399933
0.0214100044196172
0.0165941822895345
0.0165767523456351
0.0214819520814889
0.0223921709530363
0.0164452103141195
0.0163366076180367
0.0205617546032191
0.0220309537883152
0.0163449835933444
0.016134463251393
0.0215266928572478
0.0228201982675948
0.0161542175796752
0.0161792807228485
0.0243330044309029
0.0260462630381063
0.0162368829439297
0.0163100581787361
0.0280192663936571
0.0270685328028449
0.0166806797299154
0.0178632716250717
0.0286576386758743
0.0252426823582434
0.0162154071257395
0.0161011748021742
0.0226497608388866
0.0202099413982765
0.0160350322229385
0.015618518196879
0.0185569685331974
0.0186634405793312
0.0154507264869587
0.0153333199235265
0.0175281712625762
0.0173192948174842
0.0151288215690703
0.0150602069549414
0.0165549533247936
0.0159013144727672
0.0153407317455978
0.0150016306689072
0.0150071260611338
0.0150113485556681
0.0150025718855777
0.0153398149969489
0.0158978748425102
0.0165496892060232
0.0150680936999899
0.0151451693053875
0.0166561658587933
0.0159570548503853
0.0153704870602795
0.0150047501735434
0.01500903001709
0.0150087958420156
0.0150033733583739
0.0150028011223655
0.0150062401689442
0.0150048451005988
0.0150018098492551
0.0150015719303205
0.0150051336844854
0.0150066328158504
0.0150016984224041
0.0150014141790326
0.01501155536125
0.015043425343802
0.0150089169598015
0.0150050091016359
0.0150021641468503
0.0150179720304027
0.0150368798264269
0.0150769415622259
0.0150453988319647
0.0151035789820796
0.0151684060744399
0.0150695018997262
0.0150395152761029
0.0150895650180511
0.0151295422954777
0.0151549985891616
0.0151197668576275
0.0151598730991456
0.0151945947829987
0.0151317556041767
0.0151185021164589
0.0151538226858134
0.0151664964253798
0.0151557503005895
0.0151467307872367
0.0151777214382314
0.0151867912328231
0.0151779091347968
0.0151690495864815
0.0151849893444069
0.015194722867482
0.0152055568067672
0.0151912225990125
0.0152099611736962
0.0152239188950632
0.0152266379353459
0.0152122452316126
0.0152312489503597
0.0152456225400804
0.0152651695620379
0.0152507215456046
0.0152700692675975
0.0152850107713009
0.0153585117003213
0.0153253810251294
0.015342375662533
0.0153745438944579
0.0154656719400082
0.0154104010412806
0.0154293039321937
0.0154816758369806
0.0156336847594563
0.0155274568752247
0.0156117754832477
0.0156889862294266
0.0164846226874438
0.0163107305162891
0.0165167320878273
0.0166316120258706
0.0172260009458507
0.0170545793043753
0.0171273570598422
0.0172839552388943
0.0189539875815806
0.0186443559371523
0.0186033632217908
0.0187512828395739
0.0200810376850412
0.0439939483426688
0.0468778114546588
0.0207005863042818
0.0207160185944891
0.0510707314468248
0.0476765091169586
0.0201134271285284
0.020041506515614
0.0490413479021213
0.0454040140649838
0.0200502872580216
0.0202224323763819
0.0422035846649427
0.0437549967218363
0.0202736171384553
0.0198575689719654
0.0394799693166746
0.0364869470260763
0.0197757303387093
0.0197416048273882
0.0356888690026625
0.0337517370544684
0.0195223408656734
0.0192447678548226
0.0310779978039503
0.0283918547010767
0.0175929764546912
0.0167843248035925
0.0263121617349661
0.0265492415174163
0.0167164683335368
0.0166514223253278
0.0247120674788646
0.0230706115719148
0.0166093334405815
0.0164739901393508
0.0242599768980051
0.0235885521411749
0.0163625902274082
0.0163976028364882
0.0254280922583466
0.02760182538315
0.0164571913040035
0.0165363444271636
0.0301322173077892
0.0330499854435782
0.0166847840606597
0.0168583190833756
0.0305195744565884
0.0290364925493009
0.0175852454684162
0.0182621887910312
0.0300075486940229
0.0318628842080684
0.0183485090043877
0.0182202116803476
0.0305851698346305
0.0296789961520911
0.0172600307890093
0.0167332011412391
0.0260611559361858
0.0237847864762687
0.015907190079092
0.0157694910033473
0.0217792083764625
0.0200771283919046
0.0155970927763664
0.0153856179382002
0.0193184266532834
0.0182307007999326
0.0152166044525462
0.0152755580811079
0.0182184522468691
0.0173128942749624
0.0151358341080232
0.0153548664010311
0.0175183821986856
0.0174084634808529
0.0154458912523499
0.0152671852180513
0.0171650528170089
0.0171483489843007
0.0153698315298999
0.0151671233183388
0.0163892705545799
0.0158087681147969
0.0152825180974051
0.0150062337032476
0.0150261491604246
0.0150135637168438
0.015003950683353
0.0150085850731613
0.0150306853315575
0.0150513314648568
0.0158154717612663
0.0153167900391224
0.015017074960061
0.0150270910990447
0.0153126238813034
0.0157543230887357
0.0150625455320539
0.0152643811137794
0.016340125799406
0.0164223368594267
0.0152513138055865
0.0151625960610941
0.0163711088110498
0.0170316959817691
0.0172044788699091
0.0155180278529759
0.0153560974065674
0.015653460697251
0.0157846158187627
0.0184722905653294
0.0180769732445142
0.0186945456570765
0.0191391884577135
0.0158669430813977
0.0156499755589809
0.0153997849949915
0.0156101776356516
0.0155899574081517
0.0153856627435867
0.0151148046944919
0.0151847352582501
0.0152091120293828
0.0151315877691472
0.0152781403907649
0.0154130030468224
0.0154868984945315
0.015328225622408
0.0154033420442118
0.0155646942083224
0.0152709508060424
0.0152112969259391
0.0152838185774302
0.0153385395481314
0.0152384140713906
0.0152034889257988
0.0152512571926796
0.0152816680279814
0.0151981867004424
0.015185470438402
0.0152341010186454
0.0152439052065622
0.0152210620658566
0.0152130687403912
0.0151824034251628
0.0151926477611663
0.0152138222828008
0.0152056631712251
0.0152036942779392
0.0152131130407252
0.0152322645328928
0.0152228913535869
0.0152290875655332
0.0152429607939041
0.0152625941846511
0.0152486934888722
0.0152681680021613
0.0152825579630808
0.0153024459670125
0.0152861072430966
0.0152877788806487
0.0153046280691511
0.0153251871373832
0.0153060480049485
0.0153593114405649
0.0153909745367519
0.0153973680045544
0.0153693764071191
0.0153830654540969
0.0154089296111227
0.0154906841235523
0.0154478715981871
0.0154569409061402
0.0155007327329285
0.015636115095423
0.0155488770011963
0.0155631898078598
0.0156534788794414
0.0157044114133203
0.0156341439983337
0.0156524620658719
0.0157093383527874
0.0157123299145482
0.0157266661756204
0.0156214806089849
0.015692920097219
0.0156912120298039
0.0156176938925639
0.0155404933254986
0.015637778011567
0.0156292617949438
0.0155343283926143
0.0154406009538433
0.0154877161134227
0.0154828520789363
0.0154365299951946
0.0154903670454728
0.0155238206078337
0.0155321334735526
0.0155344332174154
0.0155341055465698
0.0155079989370344
0.0155064185063982
0.0155022904563542
0.0155002024094176
0.0155147082972893
0.0155137593295378
0.0155373118520103
0.0154442000257811
0.0154340230591549
0.0154310006508387
0.0154347800246835
0.0154452761099194
0.0154395711536961
0.016386661929204
0.0238995388793822
0.0221396229527237
0.0156829609324613
0.0154975313908261
0.0206345035145822
0.0207471314430113
0.0156430038510639
0.015544214899975
0.019326985434617
0.0200144215628814
0.0159657753682267
0.0155527730353654
0.0186347786533372
0.0185944798036812
0.0157184934992136
0.015500234748334
0.0181357311471127
0.0181578637367605
0.0156529498672119
0.015779208965782
0.0182242704596313
0.018638392099839
0.0159817008736511
0.0166027896132763
0.0196438695888782
0.0203498050438132
0.0166705262204928
0.0164667578746868
0.0207286682895137
0.0211440977073757
0.0166177811662967
0.0162576787821725
0.0158609664180741
0.0205254812980956
0.0209129346462621
0.0200664660010163
0.0159746342394037
0.0156913036463634
0.019598796699183
0.0220660778941128
0.0217252168316101
0.016269200028107
0.0166415732293571
0.0157283181798527
0.0155229429106603
0.015786005361586
0.0160249673527145
0.0154428123858647
0.0153848643584663
0.0154138832283314
0.0154701791973069
0.0153065128255159
0.0152754747963245
0.0152673097819903
0.0152986714569156
0.0153063688555587
0.0152781768641187
0.0152999315846781
0.0153280869353855
0.0152648910173145
0.0152517498032511
0.0152523441658319
0.015263146830342
0.0152398375222652
0.0152306760042503
0.0152299619234235
0.0152393840384475
0.0152328876429817
0.0152248160137042
0.0152450823516951
0.015253172018701
0.0152521985784918
0.0152428018519289
0.0152627601240472
0.0152728883375118
0.0152941211071154
0.0152813222540864
0.0153007739394997
0.0153166692706232
0.0153234119750782
0.0153047301074917
0.0153146630261279
0.0153306579665436
0.0153423203811252
0.0153280243416584
0.0153290595035826
0.0153436790399144
0.0153435139258169
0.0153287314507923
0.0153767865644915
0.0154019647792797
0.0154112031355717
0.0153879633184801
0.0153972752190746
0.0154216332239781
0.0154998166242202
0.0154602448458931
0.015473676606451
0.0155148785245866
0.0156450042024465
0.0155645790911976
0.0155850010147995
0.0156709413158587
0.015721721946174
0.0156524162587659
0.0157109128718894
0.0157526475679767
0.0161206969899783
0.0161111894469334
0.0161415009404217
0.0161446129711829
0.0166769432808939
0.0165740841651079
0.0166319287062508
0.0167225784236105
0.0173284392440827
0.0171853724077882
0.0172576080200491
0.0173902040092203
0.0187316117091945
0.0186198531542181
0.0186677922341315
0.0187739063739968
0.0201894929866712
0.0520336195361852
0.0561743559580034
0.0207782193497797
0.0208690189195358
0.0624450902117436
0.0573083755224461
0.0202906779239505
0.0201482463347644
0.0595277521031875
0.0537680433208494
0.0200807222621566
0.0203890891795399
0.05173407198867
0.0538604617310087
0.0203910911408856
0.0203288299822427
0.0485344903689228
0.0429983664237919
0.0207340599402811
0.0212013062248999
0.039932121787597
0.0374532077569761
0.0199604103395121
0.0178684130200385
0.0171135251913344
0.0166419391358572
0.0164913811838193
0.0188215536922177
0.0311236427288688
0.0286199871765414
0.0172796043536955
0.0166903708314644
0.0315025241224493
0.0287384088318309
0.0165583382244484
0.0165103503278846
0.0263232725323276
0.0163299991768585
0.0159513385195031
0.0159798482538943
0.0155574720421772
0.0156345520098749
0.0161638937171025
0.0165873514156743
0.0179860880063851
0.0315200835838926
0.0340331549094059
0.0186347820749323
0.0191124231936722
0.0340936575040145
0.0278728432400727
0.0173854272231375
0.0168154522393512
0.0268326641758979
0.0273968858151374
0.0174641878897783
0.0165746259933634
0.0240840096484183
0.0223575823107184
0.0158595783658896
0.0163794774543645
0.0248059441713463
0.0222817350985914
0.0161507921621275
0.016596118342472
0.0216641819428738
0.0228863873368423
0.0166509607970047
0.0166009398745242
0.021402530120155
0.0204759569755338
0.0160077850855072
0.0159842097645286
0.0202540782351996
0.0195976752416931
0.0160682848409773
0.0163969738173559
0.0203908095281953
0.0193598549343114
0.0161813308556984
0.0165902885049506
0.020689404203968
0.0210649035784695
0.017136710690842
0.0171629522134873
0.0217431086262951
0.0223148036372514
0.0170960431778443
0.0173736533815414
0.0237423745501553
0.0233046673461739
0.0228576957838855
0.0165350698752024
0.0169346147190641
0.0174034621913885
0.0170961427099204
0.0243437325195513
0.0246528393740725
0.0250836279696437
0.0177030963252865
0.0179446123098334
0.0268328650297766
0.0263924525236168
0.026445780145246
0.0178755494071259
0.0180500291706363
0.0174781905785959
0.0171391708220601
0.0169782694500913
0.0173773634328229
0.0160695886626027
0.0158480604618872
0.0158470310611383
0.0160664455988036
0.0154997325211841
0.0154326223294229
0.0154684262713592
0.0155345369299302
0.015501431706378
0.0154476484494685
0.0152980430299144
0.0153283614835746
0.0153513145508887
0.0153212706889065
0.0153448113213966
0.0153750053250361
0.0153501406758925
0.0153224693475218
0.015273384563695
0.0152863274148279
0.015284281615606
0.0152737005772987
0.015251453028919
0.0152605231282504
0.0152598736408565
0.0152505489889774
0.0152711696329979
0.0152813608576027
0.0152744279640935
0.0152655200668564
0.015284657027454
0.0152965458007577
0.0153201864009687
0.0153048338509642
0.0153155926928859
0.0153284144336674
0.0153411589688075
0.0153300609397145
0.0153258434178344
0.0153372831021453
0.0153366412697101
0.0153249612978149
0.0153281986191273
0.0153421456788338
0.015355160135512
0.0153421494685435
0.0153419837734681
0.0153554556079658
0.0153564299744285
0.0153426910745563
0.0153423291049152
0.0153562467884156
0.0153691295598257
0.0153551662909919
0.0153980830271571
0.0154206867787482
0.0154341993906001
0.0154099685476341
0.0154707379045234
0.0155092532019481
0.0155288463833168
0.0154879460948302
0.0155767995573655
0.0156547035358926
0.0156882407734716
0.0156025507081333
0.0156693515389078
0.015739987093798
0.0157734187465773
0.0157317654224544
0.0157524097318385
0.0157943659615739
0.0163160600560587
0.016307822067006
0.0163153538518587
0.016316013635665
0.016413637158694
0.0164190493040224
0.0164165672808126
0.0164012919042751
0.0167713555499452
0.0166932477794563
0.0167579448578495
0.0168242457027806
0.0174727148594018
0.0173419083068442
0.0174346165983118
0.017565148875622
0.0188370628619303
0.0187349353232139
0.0188161099065058
0.018912208617479
0.0204075655464254
0.0635395301199071
0.0698775919682177
0.0209764658817861
0.0211014810874464
0.0205410532855329
0.0709812631800354
0.0789160528948908
0.0898427609890073
0.0212426184126797
0.0206906635857069
0.0797981034175832
0.0836243059252529
0.0204466778049231
0.020327878938281
0.0742913207702634
0.0663270117179043
0.0202294395240045
0.0209811129001644
0.0658463312861856
0.0659483235060481
0.02055449061348
0.020460253630514
0.0594979383707773
0.0547320885221824
0.0231431920289653
0.0227158676587395
0.0482973453725679
0.0433139099298624
0.0231258425653076
0.0220358590704384
0.0387149898062112
0.0355043472490079
0.0213208488593568
0.0204244464993196
0.0350342574757484
0.038787811889603
0.0188699555487658
0.0179140100521858
0.0346609348827062
0.0166125726706322
0.0162138245418593
0.0163416568981214
0.0158347249446438
0.0158060478119067
0.0158932912370278
0.015514255123926
0.0158209895930784
0.0162833434231354
0.0175976115571235
0.0280176564796973
0.028737079782407
0.0179942501984003
0.018087096717496
0.028998521360604
0.0329982140660824
0.0192174151790541
0.0182716597845473
0.0305487595088534
0.0291721583575263
0.0181093767239205
0.017736804522104
0.02782416631684
0.0268576980258578
0.0171324689328064
0.0169710993347374
0.031532001921462
0.0288529896913515
0.0168416201982126
0.01674264125123
0.0265992653886982
0.0245656012305795
0.0166665534793017
0.0166194018275235
0.024284584219536
0.0231324770039574
0.0161120578331845
0.0163598560341972
0.023517851121836
0.022054125614658
0.0162953040821912
0.0162568372962604
0.0205176068032512
0.022450448379361
0.0163684236889547
0.0165717136853988
0.0216678679055656
0.0216939224040132
0.0166396409760441
0.0169861448590435
0.0223446645221254
0.0232925434819797
0.0178221387638472
0.0179056355741459
0.0236716892898761
0.0245699275375584
0.017736335885795
0.0180979854472417
0.0247409553485388
0.0268701454186334
0.0181945507633047
0.0182193954174676
0.0286171858573919
0.0281493022238677
0.0179577513778392
0.0180487099455482
0.0178282522750118
0.0277786689490749
0.0274477566156381
0.0286725869530038
0.0294654976830433
0.0178514120176262
0.0180827270517043
0.0172906366008798
0.0170009487960407
0.0160036973265564
0.0162279295623598
0.0161794864009138
0.0159781351687911
0.0155040681746481
0.0155702828268445
0.0155295555982212
0.0154772461917337
0.0155044661149303
0.015555637265225
0.0155784546931386
0.0155288780348402
0.0153680852084176
0.0153985554537316
0.0153714443194803
0.0153439849505222
0.0152951275705963
0.0153087893187729
0.0153064169076287
0.0152950964424385
0.0152723480323151
0.0152822579598219
0.0153050865096524
0.0152921131452109
0.0152905642337905
0.0153037218363478
0.0153278601559487
0.0153111711249944
0.0153223646106243
0.0153364233686846
0.0153499427796606
0.0153377201988868
0.0153310937641645
0.0153419959350806
0.0153572062148799
0.0153468859883361
0.0153452687619054
0.0153558599292041
0.0153514030095202
0.0153406732165008
0.0153394401448816
0.0153504830892607
0.0153646291297595
0.0153534324198336
0.0153554941478086
0.0153684626335758
0.0153687647817283
0.0153552378049614
0.0153556114847423
0.0153693982340818
0.0153824693366781
0.0153682645300953
0.0153677094963819
0.0153820805015348
0.0154303344174244
0.0154079154189432
0.0154219879211962
0.0154465451678973
0.015518824246341
0.015480646512812
0.0155011668235611
0.0155424858824881
0.0156647982204382
0.0155879042700629
0.0156185995847697
0.0157051525679953
0.0157583865526176
0.0156859425732707
0.0157025640166706
0.0157767478703927
0.0158146045817293
0.0157718155765641
0.0157912527341834
0.0158350360275984
0.0158549047081527
0.0158100225302226
0.0158291645118325
0.015875195419136
0.0164798883433133
0.016502147335729
0.0164971078740687
0.0164650254107305
0.0165388738588384
0.0165765212158366
0.0165693330565423
0.0165230604525451
0.0168803287164467
0.016823476987809
0.0168847482647813
0.0169379938122766
0.0176633624677135
0.0175338862683054
0.0176371910328995
0.0177671890302357
0.0189983487788297
0.0189096381139794
0.0190134643273755
0.0190955597877836
0.0192025469433562
0.0191252740332634
0.0214007117216645
0.103197614497049
0.0903154690919658
0.0208561020702516
0.020581657110221
0.0945885892464288
0.0999351047200721
0.021262631571292
0.0209562581359276
0.0960139028715418
0.0836846912102741
0.0207774867690175
0.0206599665322493
0.073836937299649
0.0706259646215701
0.0228044750041584
0.022960589443545
0.0622431359483288
0.0632866331949885
0.0243367238405981
0.0245022663392375
0.054204951149237
0.0490563570824137
0.0245638536554296
0.024593384908131
0.0461368946527079
0.0552515855751074
0.0245163656943358
0.0234297096872737
0.022590253154539
0.0232082695823614
0.0429520175745554
0.041622585331181
0.0231462980240469
0.0231055323943673
0.0416047484920357
0.0384878640940547
0.0223456232537234
0.0221424356376822
0.0374681260806441
0.0410552260881737
0.0222170039111175
0.0206193504461212
0.0406330330867144
0.0440491307730005
0.0190506542906997
0.0171449656375513
0.0397816614324422
0.0362394078789607
0.0168936126354966
0.0169991387279264
0.0335407891959932
0.0336798988565429
0.0180166876964758
0.0180355329374705
0.0372615357109374
0.0345709531413321
0.0184034851659755
0.018553682927108
0.0378990044228791
0.0416564420296329
0.0186954602793394
0.0187517050473079
0.0375460163418276
0.0419223916099863
0.021479836291087
0.0208025155831698
0.03737584850674
0.0364877064239831
0.019853272250937
0.0186907487578336
0.0329187500652964
0.0308747927367495
0.0182624184082667
0.0179739422532039
0.0296584025976779
0.030436580034052
0.0182424610730188
0.0182496966502882
0.0310681236113586
0.0362076173697124
0.0193909954451912
0.0214433824674132
0.0417330467729571
0.0360052664718113
0.0205184040636998
0.0192011625627162
0.032670399340714
0.0298109882843628
0.0187610690667726
0.0182761848869251
0.0316239273279124
0.0377626518094
0.0173236304010324
0.0171511152753218
0.0343565571360484
0.0339509169873908
0.017128393908564
0.0167567996231787
0.0302613321851432
0.0316030469126268
0.017074743838748
0.016829525947362
0.0292687594608819
0.0271214659889413
0.0166235780742285
0.0164673378134334
0.0251904858033002
0.0261410522661229
0.0165626827436109
0.0167831496838875
0.0247362687042007
0.0247249023483098
0.0168552841890865
0.0172443183411061
0.0260265844537807
0.0294234160432113
0.0179690970540676
0.0181247987404357
0.0294984148800743
0.0308351460492072
0.0182889285655141
0.0179766855731962
0.0297116024578283
0.0313116554437805
0.0180401954588025
0.0181615885693873
0.0179232628462887
0.0312414440099435
0.0300253031103964
0.0315055762641728
0.0332482522432728
0.0180500500840858
0.0182914645250915
0.0174713430980023
0.0171732024265249
0.0161608521290136
0.0163915650557044
0.0162676059612527
0.0160766209970515
0.0155739848743015
0.0156393822348055
0.0156685589679042
0.0156047922669364
0.0155493965283567
0.0155966657517309
0.0154209446913747
0.015389432948145
0.0153636871267578
0.0153917462178359
0.0153321955481422
0.0153157256759768
0.0153153421068445
0.015329643132818
0.0153553391613673
0.0153372427613543
0.0153133841231851
0.015330119187193
0.0153391231214883
0.0153251809224689
0.0153415301486221
0.0153533859519368
0.0153500617929765
0.0153381827936685
0.0153550016482146
0.015366242116823
0.0153660300565401
0.0153541884362088
0.015370903905317
0.0153832262543122
0.0153732144513988
0.0153626480521938
0.0153602546854023
0.0153711135105134
0.0153659566552238
0.0153551189081316
0.0153695816255607
0.0153809078958794
0.0153790218111356
0.015367296179535
0.0153686343406133
0.0153819696611153
0.0153821695823296
0.0153681928388538
0.0153814750112618
0.015395840676676
0.0153957796026391
0.0153811800477444
0.0153804904129036
0.0153952425372635
0.0154403293799454
0.0154180694300493
0.015434064642406
0.0154589111350084
0.015528760282207
0.0154908488168825
0.0155144201604264
0.0155561343286319
0.0156754228858152
0.0155993749426021
0.0156346920054707
0.0157219386091951
0.0157385255852889
0.0156507453237054
0.0157191562967863
0.0157950659979731
0.0158133466268853
0.0157357401754258
0.0157523668432411
0.0158316213205203
0.015849869501939
0.0157690511206761
0.0158479001498126
0.0158950850515677
0.0159155126652829
0.0158671842367681
0.0158861404243349
0.0159355715053165
0.0159561802038178
0.0159056820641632
0.0166452140831918
0.0165938572945195
0.0165760598927234
0.0166354584058898
0.0167075341297668
0.0166441369322412
0.0166237299200419
0.0166950533219227
0.0169418070594708
0.0169958690843611
0.0170527623636816
0.0169952492983945
0.0177416751198588
0.0178746660464641
0.0179830604482343
0.017844049119778
0.0179394430349585
0.018088489876609
0.019316649343135