/*--------------------------------*- C++ -*----------------------------------*\
| =========                 |                                                 |
| \\      /  F ield         | OpenFOAM: The Open Source CFD Toolbox           |
|  \\    /   O peration     | Version:  2312                                  |
|   \\  /    A nd           | Website:  www.openfoam.com                      |
|    \\/     M anipulation  |                                                 |
\*---------------------------------------------------------------------------*/
FoamFile
{
    version     2.0;
    format      ascii;
    arch        "LSB;label=32;scalar=64";
    class       volScalarField;
    location    "500";
    object      omega;
}
// * * * * * * * * * * * * * * * * * * * * * * * * * * * * * * * * * * * * * //

dimensions      [0 0 -1 0 0 0 0];

internalField   nonuniform List<scalar> 
207032
(
3.36616627852445
8.27076867287309
28.5220327189684
25.8065565094868
7.03450146682736
6.83470348890563
25.4349671619715
24.1323446275482
26.6476846817726
4.51401343799809
5.11770531085496
2.58174237663771
2.17020179790329
2.29024130637273
2.69044935205291
5.54709401600338
25.4553535923252
28.3487065944657
4.68693188594701
4.87120156984383
30.1646281267563
27.1632219080554
6.0922292872111
2.9069097654225
2.41264524022387
2.59147737534928
3.15780140228694
6.82486254358085
29.1526457287596
31.9070720018746
5.38616208362837
8.56115870682251
37.041442733137
34.5728688143762
9.77713948267224
10.0645973839395
35.8782564579439
31.6733785371248
8.76563168004804
9.62944325432564
35.4637722736162
34.2074201652069
10.0515820772541
9.64859080776596
30.4639779447876
25.1981874178187
8.08171955004859
5.33445155272229
19.2693529008344
15.3436583431489
2.89278046934938
1.51860152988606
13.7386409628867
14.0712769743299
14.3850306858414
1.07608695769195
1.09084243856812
1.02279588767274
1.00357583524126
1.00224633673196
1.00113814804944
1.00461709407716
1.01644199876995
1.03082767875266
1.01220081190314
1.73826503360323
17.5347411678614
15.3108502266049
1.67928517173963
1.06975306723698
1.04183331075376
16.668728030284
14.8780123323304
15.080917130361
16.5571683383265
1.03051656523654
1.03790972597656
2.44197144797402
16.6743535564053
19.3501262170048
2.38537547262188
1.16065146689791
1.20588465027588
1.21191551635858
1.16345363059418
2.93310069143468
3.54366707031326
3.54388644137879
2.94130827718285
2.09336573127836
2.34755299075573
1.21881929474244
1.16796499959472
1.06017483785307
1.08353117877965
1.31753158399057
1.1873033749069
1.27981412217303
1.40000813064461
1.44409229371727
1.37054762447949
1.48154896848805
1.58035300341936
1.91377378169033
1.6337242276732
3.17544706010956
4.02878760557677
5.4404341738905
4.81571292071275
11.0839467188193
47.6656734049221
45.629154393029
12.0511514393389
12.6607143696419
45.300969520227
40.9947257519159
10.9383212810453
12.088230198384
43.6691294598319
50.3858212356666
13.0346507082479
13.6830509986469
50.6535683076541
56.756686679472
14.6419841675409
14.6879964455569
62.250459565425
82.6843843579649
22.4027129368428
18.8699663449066
70.3251448007046
58.3658618683356
14.8734264547464
13.8044840986469
52.6310836586228
43.3357256913823
11.5382559717109
10.4221316701511
39.1429256530356
36.6859605714147
10.1165330603513
8.09218342481153
30.7339564911263
28.806294949528
7.87210235772701
7.32129418006403
26.6743160896018
22.8752454853508
5.9588978313041
7.55187692758965
24.9937356753269
18.2468050450306
4.85812038465667
3.35675795521681
14.9408939571416
13.0727953268004
1.9676186925973
1.03819567830458
1.01054974984218
13.8826513734727
13.1540362344535
11.9403489718278
12.0348993781742
1.00269355739777
1.00927006887814
1.00318887056995
1.00106488833816
1.00255018434882
1.00907574557665
1.01100370322326
1.32778066745936
1.40775520690827
2.08352153367505
12.6802551294631
12.5438235367389
1.75959781423869
1.00575778434249
1.00167213422074
11.8498111645968
11.8081077243672
13.2079069086021
13.906448949671
1.00443950418563
1.01019191952493
1.00066191273282
1.00040845572551
1.00011528989114
1.00023832117881
1.00081544740221
1.00027110707715
1.00054121319844
1.00303269292057
1.00117798990513
1.00027399787805
1.0002353017669
1.0003742081261
1.00000226843129
0.999984947707377
0.999951472685592
1.00007127313894
1.00031104999362
0.999979067666743
1.00053494683037
1.00276586250575
1.04113126704203
1.01984654606365
1.00251605765245
1.00524513556537
1.02127907097162
1.01454077839474
1.02595202065477
1.03549630597305
1.05548813687045
1.0460684875866
1.10935222316686
1.14442417985711
1.18460854147449
1.14814670160686
1.21222991543611
1.25343267432758
1.26530627074962
1.2225944291834
1.37268297844272
1.45943157378486
1.47997099734629
1.39059323921292
1.85801252853533
2.23118933799464
2.31705877143449
2.03585784578104
4.89619942170648
5.45533592918447
5.41790087642874
4.88556194517903
13.8000606933757
13.4325248201386
14.0471494825771
15.5647902365608
14.5334636883655
13.1714539004858
18.8555839111725
79.4380913904969
96.1676825149403
22.1074595130735
22.7098523228002
99.0610251784914
83.4203710835572
19.6360084612874
15.1449703940888
68.1681002257369
65.3045015125914
14.7201000450058
6.54700230548018
4.01981239577183
3.27991696437442
3.75053205525026
3.58341746485043
5.08941800007116
5.05191766494431
6.73738547542749
32.6432813818001
32.1801142460771
6.70299495908699
6.66365946231394
32.3679273016459
33.0280948199546
6.82296486080105
6.7793585062834
32.3429742172754
31.9360904643662
6.6947801712897
7.25063783534301
26.465712402229
19.2185756823936
4.84098588593462
3.30583355543604
15.2447393648666
14.8132097590452
2.54369066124874
3.52961893644382
15.7617809293429
13.4309528896082
2.17776041584387
2.02056462176467
13.7560686780241
13.9444165975576
14.9598404991536
1.00388380699948
1.01156995390479
1.00083421664599
1.00025777674634
1.00009233807294
1.00021652647399
1.00017977295078
1.00009238217337
1.00009070600004
1.0002265417389
1.0003465360521
1.00008055299808
1.00000749882551
1.00030930280247
1.00009561663977
1.00003197937748
0.999942152330116
0.999941598354267
0.999937272115297
0.999918662873512
1.0000874449212
1.00040180568113
1.00360594011866
1.00134208088687
1.00060532733595
1.00095429469132
1.00865307086162
1.00494784951736
1.01971794187292
1.02873876658139
1.03845462034519
1.02900948195663
1.04792508816444
1.05466173416693
1.04677202853177
1.04092095365705
1.06536334687303
1.07183656939399
1.0822436721413
1.07154446798819
1.1040806678772
1.11618953423242
1.13758015822066
1.12284122461698
1.22875558105479
1.27040964501277
1.29887382467365
1.25697500557533
1.28378074995457
1.32645408763499
1.35775917024653
1.3147807621309
1.52330186391452
1.63832276257236
1.6638726436183
1.55288117608098
1.88890130229592
2.20671492384195
2.20147806214271
1.92153713512084
2.11942491848265
2.34605159834874
5.47728736149385
4.99167213310326
4.96018801056561
5.43942630610278
5.89411288611283
5.56526131718287
14.9416320683347
13.3727335316808
15.3083956633551
17.2750156067475
28.6681520471298
22.3280225662162
93.6230274178754
113.25857284601
137.09504602923
105.482515293996
22.2103065320979
31.3009137023805
18.0821040856611
18.4208311517891
18.4341905034791
18.1378447553046
30.7296929323722
22.6672167752285
111.627032292924
143.462123994835
121.130266578863
27.700430317909
22.0334689732345
106.357139732263
96.0540470373089
21.6259275773922
22.0045473969073
97.0564698256333
94.0342667803086
20.5592155013305
20.6709618258079
91.2630823487136
87.0510102904436
20.6585064159167
17.594816930417
84.4978270617095
77.1037010147592
16.5289452735362
18.2662828903654
65.3926967209505
54.6509009597191
16.6780320684202
11.1561541662189
39.7629133739819
34.9482376329549
9.31615460261196
8.3519208904924
32.3669613941481
30.2549913792287
8.26478063775613
8.25403039603184
29.121309169698
27.4230665775938
8.13459167975715
8.13008813465957
31.4657763093115
40.5448692056695
8.69533582562591
8.3696038139178
37.4932342991895
40.9017109087025
8.34625347556377
6.8319275181392
36.6659525956294
36.0412156480622
6.7834400939284
6.77705075015557
35.8802008490244
36.4697716176495
6.81183846865316
6.89220534416803
37.5490720359179
34.3164539110951
7.62747368538003
9.92825315838217
33.4947622271983
28.0937471632744
6.47325352385475
6.34159861690485
27.2414720097466
23.3247334669474
6.2936154014733
4.77236157918498
18.8791714004667
17.6166157310267
3.72840667629722
3.22606120066719
15.6485554592991
13.412056270006
1.77133320881491
1.41440405648798
12.5006162696024
12.8236217826067
13.6192669048139
1.00347047869056
1.00924148418382
1.007975346477
1.00297269136301
13.6044794566739
12.81249699532
12.4972939392162
1.42104327001202
2.0211977223492
13.7715740352837
13.9329136102933
14.9140124314083
1.00339030010393
1.01192340541102
1.00125210560952
1.00031776341788
1.00022747361174
1.00053649847297
1.00029953650475
1.00010957113435
1.00008595401735
1.00033756741903
1.00060375071207
1.0000944292994
1.00006967968149
1.0021249499552
1.01790185305252
1.00177123334642
1.00074996409168
1.00018468352913
1.00429388639467
1.01464898907244
1.03657320794123
1.01301444023043
1.2917200716456
1.37532469985192
1.07450883241819
1.04165727663685
1.09481724310095
1.13573548026709
1.16532541767957
1.12100656777449
1.16235288830273
1.20814766731257
1.07016346219908
1.05898893985492
1.0887710238413
1.10057691688978
1.08158604694519
1.07381447053432
1.10685002833345
1.1163930986712
1.10620568664312
1.09850763552629
1.11583571667397
1.1263383392955
1.1368423995757
1.12260437078636
1.14773197001304
1.16250285020876
1.162586741686
1.14765873194187
1.17564202994138
1.19158664284499
1.22619795467981
1.20898196835895
1.24714768714897
1.26760537562182
1.39298710031693
1.34973847238705
1.38337581770783
1.43198302049534
1.68871202713762
1.5841720192915
1.61948997689892
1.71888425884848
2.20550394664365
1.95888607629886
2.27224637844569
2.39672590750183
5.53630715686877
5.13481438422342
5.81740095650802
5.93037135474289
8.64854324155366
8.52650885392388
8.59742598403026
8.63470601617072
16.4809655914752
16.2420220966713
15.7148118176435
15.2258909692226
21.5701865401844
98.3135387261939
110.442394335148
26.4303348255219
26.1781073070993
112.904053356784
98.3648356045339
21.4241407848104
20.4160610158826
93.2713333793537
92.1480687590567
20.7257034347174
20.4154499300664
94.7399676137287
94.1522145140903
20.6717837690818
17.4716412466314
73.9851586307783
71.8140391605246
17.3353301073604
17.1222903845322
58.7264608063265
50.192363139683
15.0258809649888
14.3030142874701
44.1344890417769
34.9122395267963
10.254331748651
8.48526152873071
31.5334867305178
33.8498748432553
8.25313363737246
8.18291447537236
33.028958201989
32.3939297368502
8.15746573146036
8.67128044347573
41.2779764938229
40.9343227492737
8.33376879920435
8.34431336388478
41.0486286352759
41.9805709308066
8.38705731115618
8.46363857343286
43.5363837509295
45.4936024429917
8.68414840595682
8.10058104389112
40.4508604535959
40.4160434303032
9.79281865356412
11.4740087048873
47.7748028311169
50.5829696645049
11.568254221168
10.6774101834869
39.6698421051974
29.8997438665381
7.2059897538207
6.11500311596272
24.6101957820283
21.9957749026248
4.59397184645382
4.46614791390989
20.6590332312243
19.1421012365255
4.1499765785624
2.52964546621118
15.5314432565903
14.3688381683804
2.07560066650506
2.28246118639903
14.5219562213581
13.4059998507165
1.7620469416293
3.2113341347923
15.6657182295783
16.2725387543626
4.00747706415694
2.76518178948368
15.2036087480678
15.2732518343375
3.30451963448856
2.07517837752828
12.7257496567076
11.9335937015905
11.9846806110181
1.0018659395609
1.00781077148524
1.00207878629439
1.00041482445708
1.00145596765225
1.00839595353877
1.03932237979383
13.1930631394418
13.8435919467227
1.01381832019362
1.10447340180948
14.3406538571332
14.1245114960498
1.11384873754966
2.40040740109474
14.5973917925072
16.044820966945
2.33212828306468
1.80920965273152
17.6605102734778
20.4609208467145
18.97859607287
3.72596539613158
3.30442274043985
5.48067213100592
5.06282629802292
23.3117697413148
26.3736508318248
29.4749544371311
25.7990140358749
5.09880389131526
5.1667151222917
3.29684250920762
3.76701347456368
3.75922034694309
3.28897101142108
1.29616264206226
1.38423646211193
1.39487242903619
1.30265628125746
2.29235054557743
2.48260123585359
2.73179931032065
2.39339808737057
2.63068627657789
2.96338831583052
1.53097113802578
1.43087164774892
1.61578514377373
1.66351209304434
1.25971666143176
1.21721015375596
1.29713012344929
1.32811957764734
1.13513782143313
1.12194617201229
1.20868902174582
1.2170027380992
1.17166095821017
1.16037335371776
1.1152491867951
1.12636224976909
1.16105294527129
1.15104649088725
1.14370375577093
1.1544957585448
1.18924716205191
1.17788530603131
1.17833858388791
1.19392600677746
1.23225162458033
1.21566824345255
1.25822809419808
1.27816621972725
1.33340100297172
1.30246622555023
1.28524653756632
1.31665187430265
1.37095068224361
1.33037056823282
1.42120960298595
1.47614494938635
1.4932757403166
1.44051223580631
1.47066581282287
1.52312683791197
1.74250400170243
1.65277948999616
1.67113480953817
1.75634025401246
2.1883787766482
1.98344350432847
2.02804689232175
2.2349234604157
2.41807099032145
2.29282105025524
2.36193658017722
2.42263178565598
2.4228961202837
2.65256376788054
2.28627556018912
2.39818688498148
2.39732829139362
2.27149446981407
1.98157401178995
2.20704960521531
2.18447917170778
1.96301857234796
1.63942615681149
1.73037395234452
1.7237761800946
1.6325406409368
1.74133047269659
1.78397678658684
1.81099101025868
1.81133130380973
1.81686716446576
1.74564780964271
1.74075860401332
1.73787967892005
1.73256552076161
1.80483574773925
1.81547007919377
2.10088895404692
2.05991180436736
1.92810060283801
1.83710438365913
1.84921758459366
1.79555399540755
1.72314153010587
4.2129691779284
19.6867864525848
17.5848370958511
2.87625156053636
2.65318825716147
16.6705152449161
17.7739005127688
3.16569088310109
3.10176059075892
16.2364851746975
20.8885393772715
5.54745982110727
4.08525126848199
17.9327482407386
20.2404753804164
5.34926622088654
3.9854793422741
19.4065912872471
19.1073564926223
4.72764948575449
4.91646921028154
18.5196901099748
20.3521076814269
5.42982432588828
8.31382143595929
26.0332305849854
27.3471627540185
8.93465433103339
7.58212815903064
27.5643531379145
29.835674038005
8.18648968214868
6.6798853001396
5.91710410871725
29.3779957659472
29.6871640947828
26.8565907024884
5.42631178293842
5.19957566911049
27.8431693375758
35.6875749060372
35.1727017875634
7.88673656657065
8.58829383750852
3.6739544723984
3.14118447589627
4.40832431042155
5.05622880790485
1.98754557726371
1.93321750826964
1.97208206832997
2.02632217885808
1.37615427306678
1.34249672992225
1.32118171806149
1.35507621037164
1.36003440749896
1.32520733413486
1.37368361805815
1.41082845500691
1.26256112496317
1.24352858898407
1.24682004415695
1.26059045958241
1.21112548173202
1.1952951832557
1.19145848122612
1.20863146945646
1.20048051704986
1.18874357691178
1.23570581160546
1.24840224283083
1.23206087160572
1.21944919406274
1.26807151600895
1.28400841741669
1.346220774164
1.31766946702917
1.37499133016384
1.41484786384602
1.39277458036483
1.35250107787357
1.37575934066125
1.41430469237556
1.44732770491406
1.41079809674871
1.39279917808764
1.42654732199076
1.42052689920387
1.38444469561947
1.46820455797319
1.51834841715373
1.54873657936576
1.49795134163432
1.50415298978121
1.55558663204325
1.76587651539652
1.67810457756843
1.70523284772931
1.78550167334417
2.19943038206795
2.0097304596219
2.07356697827709
2.2675687770115
2.45196514479975
2.3254571948413
2.54886131476549
2.54580760304976
3.931032454768
4.13489725802332
4.17758710238274
3.95657733552652
5.90034179736756
5.82277336927802
5.85247289894796
5.90167203994895
8.56421336392057
8.58261520223659
8.63672686489646
8.5794281109497
14.8445580095138
15.5053597771259
15.4371369100672
14.7660054936334
21.5097763886407
101.520847254609
117.410239868584
26.1546353558047
26.2497627126866
123.447288754304
106.279216754012
21.701507237079
20.3999717828664
102.079850176156
96.9056329211707
20.3451995549759
20.682437421447
104.01601805619
104.411859082352
20.7911383615103
20.7304474848793
98.7738164876632
79.8775974279191
19.7609670199731
20.6026019329809
71.3388559596357
63.2468380941907
17.3034659455551
10.5960274791758
7.54976965608402
6.20256420124191
5.76255199814107
13.1438838616515
43.3341250217362
36.2012967654295
9.47662992752877
8.85598559485538
44.551533493615
42.8716340552613
8.66831715519498
8.6576184620051
41.7642461698912
7.60606176022725
5.38980345128238
5.57541922681438
2.52663264998407
2.64690632251102
4.16106888694112
5.1072522384941
9.63129658708774
40.3058727502268
42.4449219276403
11.025699041329
10.2808527473907
35.4945789422749
25.3377678093891
6.04378020013319
5.04937383017892
23.1098051984869
25.9287824710529
6.62091865040925
4.80186730004599
20.8876400691158
18.6575480372047
3.43473099930328
6.36494773460071
26.2695325440589
24.7671975444141
6.00455327009529
9.07326221532536
32.7477869158331
42.4667960875731
9.55638530491757
9.59185048818436
38.5014138041405
33.4325205551278
6.75752053421265
6.60975740016787
31.1274031665213
26.039632046621
7.07452382354601
7.55707918461192
25.4633031641198
23.7326682993258
6.13888890705757
7.92268147193746
28.6101776570599
32.2169560318212
10.604060847471
11.0713871746499
35.1013179613582
35.4542889061373
10.3167164685364
11.8065988495666
44.9234160670538
43.2626881415811
44.1087126889015
9.26785426639839
10.1103934537617
12.4854755386855
12.5570457381047
56.600489141903
51.0613537411777
54.2124423268907
13.5929560377463
14.7623296158224
60.5146984678583
60.7836775957141
74.1748590751617
17.5487204962932
15.8472941193844
12.7074424660653
12.5908001039616
11.6142240179405
12.2247032877695
5.0956349971715
4.48868738614355
4.4983403880608
5.0875036419467
2.16565119134807
2.06937343816787
2.12872663299879
2.22000548177778
2.07384879067584
2.02655284748827
1.38088751786523
1.41375726620045
1.46372323864864
1.43075577622372
1.49349397939837
1.52892887669377
1.47223637096751
1.43467418856743
1.29995332076351
1.32039512259992
1.31698350097186
1.30163177341642
1.24656185831454
1.26398816944643
1.25817183269068
1.23933527322181
1.29515314929313
1.31850924484651
1.3060022415099
1.28976583642122
1.34615421693781
1.37510189200558
1.45268816804861
1.41070837522043
1.44329408877212
1.48265903384349
1.5284443439733
1.49055647178239
1.45599560890737
1.48740326119773
1.4831561355165
1.4490728583212
1.42502417792503
1.45972220051138
1.50174134520898
1.46720735544244
1.44827177085498
1.48457905897358
1.46332373201841
1.42892539611929
1.41806020286013
1.45283027474097
1.48516300455521
1.44937294780038
1.52513232950415
1.57738879774713
1.58772053548864
1.53489150143028
1.7006284150448
1.78895140750072
1.81607968804952
1.73577524205737
2.0302119540213
2.21363292918499
2.30300738269988
2.11195271301978
2.35996298789305
2.49088395189716
2.57937786188911
2.59435167329476
2.64150530593662
2.61756283539662
4.52620294844051
4.73781043194921
4.69337071825603
4.46083632123499
4.75252291739944
5.00055133391235
4.92371440555387
4.64711331861192
5.93915610546455
5.90418642534809
5.97224391777188
6.00936935227063
8.69580244086496
8.74599887478488
8.89199579597864
8.86127702952187
14.7797811021575
15.4479674847433
15.5158189040674
14.84268047088
21.9551688084466
111.902617847318
130.423410491526
26.4154368661783
26.6492082313186
22.2723029499194
118.356966511925
138.537565931633
147.76556144773
26.9331452932063
22.6547874565548
125.417321937748
121.48375131867
20.8978524036924
20.6682155782939
114.644466282385
108.127324271649
20.5048521061701
21.9705301479986
118.508153014641
117.879098522708
20.9490167971479
20.84566846053
110.843075184891
107.595692104063
26.2220900212197
25.1125171753676
94.1876351643997
92.159738182396
26.5659995931162
22.3484360175782
71.4854989396848
65.9425057475319
20.6968624791836
17.5073043095548
58.3835751855042
56.4706482335817
13.4957614524052
11.4891097698961
48.9826766360643
7.7303531791246
5.35760895913363
5.74409718035624
3.19108227630507
3.06421831942443
3.28882848781579
2.03465495945349
2.66819439358151
3.6219151774007
6.39585684061414
24.7252906058115
26.7265526640489
7.49316084945043
7.96196879589509
31.810790541421
41.2811209865984
11.6937695753589
9.72482944670399
36.9602237661666
33.2203427793181
9.7811875079203
9.04678309050072
30.4641118416645
36.080910715889
9.10891282469429
9.56404841556444
46.733727502645
44.5080920745106
9.34205953395216
9.37834231305597
43.0990448447365
42.4700927238897
9.28622981890475
9.20799328214128
42.6345104770154
36.1199369037581
6.78642018371858
8.26691438485094
40.1716833324348
40.1308494127886
8.23087243557291
8.23719595274388
36.7837506341637
40.0309817861128
8.51306362212698
8.22882529403612
31.2174254326792
29.0415417323171
8.44085562768293
9.49131384033964
33.3468940167614
41.4513495468924
13.9266006317835
14.6921750588268
46.0160316878249
54.4724096587853
13.8045204501582
15.972700641625
60.4026774784572
66.5096132385058
16.2581877391225
16.1613612164915
67.7218021407417
61.7103993516171
14.6413532408903
15.6248297928399
16.9690115303185
81.7714507014463
63.934921511296
61.7618846802218
78.5270084210583
16.7195384060494
15.5060194371548
11.0966434665292
10.9863513644978
4.76792956568563
5.35904965326244
5.14639288083352
4.64274303994811
2.19956206484659
2.28841906797671
2.12252713531418
2.07848497621777
2.13949404785007
2.1830163707059
2.2583278310629
2.21214799330795
1.57025382418845
1.61081604799797
1.54689496791277
1.5056054817868
1.36859313852196
1.3942215586584
1.3883459483017
1.36804006790649
1.30785616581886
1.32970680568807
1.41317518958813
1.37752660412045
1.35652932738569
1.39267567480454
1.48581311341091
1.4341692433902
1.47773950884673
1.52816973746449
1.59624897667013
1.55403972036324
1.51483921954306
1.54422438001979
1.61767711517141
1.58677606306495
1.55207889319602
1.59498875778305
1.5363153213614
1.50551218772343
1.49388902248477
1.53050805037924
1.58000940452927
1.54034056993983
1.50726432556549
1.54359617342083
1.52169220202169
1.48348435432153
1.46158182808439
1.49824686641324
1.53086526583157
1.49154463502583
1.47849853774868
1.51656822796187
1.60394459487224
1.55020149788522
1.56346036408768
1.61956449879653
1.8112825335923
1.72146873952463
1.76405063056564
1.84667178586009
2.2293750836722
2.04885817605534
2.14806421156061
2.33961457293785
2.5341786145494
2.39640546717748
2.43399366951163
2.57768679754104
2.6553397407967
2.68369979137959
2.7291934862836
2.69549656206432
2.73536288319027
2.77225250865212
2.82053830268806
2.77843051083049
4.87345153084097
5.16054715107642
5.0799443168701
4.76602270650363
4.98043861379796
5.29254498903671
5.21144935939328
4.8752207014244
6.1039070716749
6.04461203454823
6.10694864821048
6.21292618509121
9.0574103559541
9.06691713986624
9.26194195084412
9.28660764460908
14.9522160747979
15.6367492177444
15.8071275763994
15.1132698685094
15.325026854245
16.0207851358984
27.2692705519472
158.276877195418
133.126530083421
23.10003326452
21.1711964676193
128.604242531076
145.073817414719
22.513657492192
21.6338051225748
141.376993180652
132.836915135361
21.2929857833129
21.0958042892222
125.037214240521
120.602088131116
25.2130195216664
25.6700838154688
113.844463601006
138.62507354535
30.7089759041711
31.7337029927932
130.232554316946
132.082984008569
32.1447687113555
32.4364972148663
119.006478905936
133.129245709469
31.5469825075962
28.4201177036644
25.0351731009021
27.0328378610674
109.667070273797
104.821678598672
26.9110612085706
26.3654106949097
97.4966132368845
94.2061856037786
24.8822323080909
24.4663952035617
97.2610340910376
101.724803239575
24.6253689698616
17.9274979731323
71.4851052959455
62.3303918446388
13.8254431048468
9.46954016813071
50.5714897107675
47.8795075830514
9.02702727953496
8.35406571037364
43.4625234024449
51.6999466704342
10.7751147697802
10.7213800321412
52.9131804736939
50.7317215615773
11.4957244336921
11.7751857223274
52.6272079766406
55.1841035807855
11.9412017307691
11.0713810767222
47.3708792085374
56.0706575712729
16.3684161585876
13.9280038340836
48.2742550407347
39.0793691174363
11.6246492807405
8.50645826806601
32.0234850221538
29.0206715014252
7.82022818522803
7.02772996446422
27.6784176467132
29.2241309979434
7.85134383976031
8.19809581803353
34.2603946336986
46.4255564514737
11.9477516782209
18.1313143976807
66.3043835430319
54.2785849201008
15.8674342479492
12.7252025316508
47.1375375141795
41.2200811646478
11.72390775028
11.5157980803592
44.1643026078113
51.6589264858143
10.1423271508924
9.7924460597609
49.0299571503091
48.9203474269246
9.99940626619086
8.02540703305819
39.8163993638489
44.5493695314536
9.77130587280691
9.12218116659382
42.6493009293827
41.0673647517062
8.66241276884015
8.39226742631451
40.1712102461186
40.8963047077614
8.68049555294605
8.4816675258322
32.7581269549199
32.0185882731191
8.73288744564384
9.99029971552637
38.1420732250251
52.327242851745
14.0793763678336
15.4377884847006
66.9660456493105
69.092324396347
16.238502329297
14.4745591027206
61.238458437509
61.6816355542346
14.4950518373361
15.5937863081596
16.7213828438736
77.8314078203205
61.1114980226888
61.6444970844188
78.8279577794726
17.0190683267383
15.9679761670506
11.4428143627949
11.1662065204088
5.18068078911626
5.78184863310378
5.25131497449892
4.79315138019528
2.39703871529794
2.4858190530693
2.62837007978008
2.51899789153368
2.29330112373838
2.36011023753511
1.71732155410794
1.65594233477889
1.58420152305455
1.64280870235636
1.49129248944144
1.44800379084219
1.44579161810021
1.48228030186048
1.61716492515454
1.55603516987498
1.4737996568015
1.52891422265621
1.57590982992978
1.53742791851947
1.64484904465307
1.66812957239011
1.59745320961829
1.5760830657857
1.69356250106859
1.7165872497571
1.70911608133244
1.65509723042942
1.79544762508112
1.85864984021317
1.71645148842169
1.68326337571546
1.62763624259432
1.67414663244635
1.59343327955461
1.56182443530514
1.63222520426651
1.66484508106201
1.63551493929672
1.59273691220663
1.54821331816045
1.58660578099045
1.55870979873575
1.51727606025228
1.55198286750159
1.59760050629181
1.5624131381931
1.52063932840628
1.50590725368139
1.5464586876603
1.62843057072141
1.57351938568099
1.59089925365649
1.65042678005048
1.83330055762942
1.74193830322215
1.79166633640238
1.87727751463241
2.24646040849016
2.06811049249512
2.18445342962111
2.37636770467557
2.41235360511688
2.22027598941639
2.47305683612023
2.62368650424917
2.66862135090053
2.5121584234818
2.55200620779653
2.71276128051109
2.75390501702317
2.59058301578006
2.86735332206368
2.82047849663333
2.86509798399341
2.9192080627853
2.96865154843383
2.90729654908805
2.9510443201158
3.02186585128909
5.40750118900638
5.08232931767609
4.97430581232569
5.32436271322902
5.50280480353244
5.17390608120739
5.0567310877853
5.41550631912318
6.16164802231606
6.32973926195072
6.44594449709758
6.20865094271519
9.46665004169813
9.54305652049538
9.81592869390797
9.66638074247697
9.84126817670364
10.0871243400444
15.5805192636565
16.268772439479
27.6693975404046
170.241732628479
141.645099161891
23.5928332947784
21.4914578779392
136.153624411577
155.243652079244
22.7869377525208
22.1715103687539
150.589832849068
149.680297627852
26.8613985714424
25.4921614743258
137.605949440459
128.430536800733
25.1456230998044
30.9107338719715
157.135625150336
143.149235176898
31.6822775075559
31.573932902998
134.251099895069
102.893621920421
27.2779874872167
27.0601151201795
102.873126482712
96.114908572207
26.0485351420191
26.2919929791876
104.337955321075
101.968979004695
24.9632005092482
24.5963498152407
107.508711107459
103.619537750177
24.4493852104424
22.2276532581412
99.3097644363689
99.2681946817643
22.3316387348766
18.605129310166
74.551326117909
66.3308336539278
14.5084556508671
10.0591987180652
53.2650368280724
47.1186050949533
9.07630216088609
8.65856882443127
44.9583601635721
6.22470827852905
9.53382059009101
9.50683936425609
11.1301327773903
55.3047152988386
58.8187066444516
12.1204917321145
17.4179270622821
68.3341628594403
63.7810983975584
15.940008861635
25.3756073545178
88.3430141180798
78.1545751249728
23.4782100615764
18.0542312961749
58.5798357651265
45.8369366745591
14.3871953316605
10.0581459558085
35.4590181767064
30.521578365585
7.91944474287865
7.25624329428215
29.1254340241203
30.4234506289282
7.97622835602523
8.41346128114753
35.6311082179543
48.7926690432196
12.054735421558
18.7373864205518
71.8828307231789
91.4175130917788
24.4685964940368
25.8276899030813
119.794572779759
114.066181198903
25.2051910660304
25.4801677243443
110.626214255786
101.293443545267
25.0606073139363
22.8855707051405
81.8847240531696
59.6711026715219
14.4142054195663
15.2737338278824
60.5964678246941
52.9309654257806
13.5836440775009
15.3331912970672
57.2576411781503
48.32704335907
11.4648955049598
11.809267124853
48.8818436038401
38.5774286919587
13.4644941946052
14.5400335718783
37.299347796242
44.4337725475241
17.2114897525947
22.0994538002953
64.6733172720003
84.2334329758814
22.1382886281536
24.839477450549
91.1179473226144
83.3899573655053
24.3693843106096
29.7094691002987
33.6043524072585
133.288890592802
92.1557242303409
88.7872584676352
126.637222569552
29.9734176892177
26.9085464341424
18.0157541109786
17.9095375150372
13.5938768083656
13.1380212171793
8.72178843802209
8.47920541220607
7.8314301798194
8.31110794167182
6.98695780423022
6.55988099231496
5.33611412352512
5.67661288696377
3.92763018722321
3.79837262837244
3.66512070088549
3.77322208701144
3.5436434293791
3.44476676050504
3.21827573550699
3.30571925886663
3.08000371224467
2.97624986388532
3.04325046673577
3.12518872306316
3.25493189355047
3.14471851767519
3.22887209498514
3.33200939873519
3.46626198642883
3.31406556045944
3.34471663007227
3.46674329610935
3.53416525239014
3.36020430921037
3.27535000922869
3.40565796343739
3.11720745845236
2.99124884408531
2.82497862145701
2.94060137389752
2.51806282157155
2.46941617029476
2.26114261368536
2.35280958716773
2.04647536501751
2.00241219966663
1.85844031260208
1.91276308250207
1.75904046520531
1.72464872618731
1.65798984767811