/*--------------------------------*- C++ -*----------------------------------*\
| =========                 |                                                 |
| \\      /  F ield         | OpenFOAM: The Open Source CFD Toolbox           |
|  \\    /   O peration     | Version:  2312                                  |
|   \\  /    A nd           | Website:  www.openfoam.com                      |
|    \\/     M anipulation  |                                                 |
\*---------------------------------------------------------------------------*/
FoamFile
{
    version     2.0;
    format      ascii;
    arch        "LSB;label=32;scalar=64";
    class       volScalarField;
    location    "500";
    object      p;
}
// * * * * * * * * * * * * * * * * * * * * * * * * * * * * * * * * * * * * * //

dimensions      [0 2 -2 0 0 0 0];

internalField   nonuniform List<scalar> 
207032
(
83524.0574331317
83537.6829753271
83559.2913757476
83536.6877089307
83523.2303286328
83513.3316653526
83501.3776006849
83492.5808582937
83496.5317145581
83508.0029062157
83508.0760527429
83504.3964439234
83504.6615322454
83512.9244224509
83512.4759560997
83520.7147574591
83522.2297524259
83521.2149948568
83521.5351305587
83531.8016873483
83540.1272662682
83544.6015383982
83531.7628216181
83523.2949527553
83523.5270137984
83530.7161197849
83530.0413424537
83532.1749380365
83537.770429601
83537.1345189211
83532.5864729687
83533.4378322927
83534.9357256124
83533.68307655
83532.2658490373
83530.4403741678
83536.9049663684
83546.0364415472
83533.5160377327
83533.4863331569
83546.5763554101
83531.2763167339
83528.7772666911
83533.4170619299
83548.3811887277
83490.4163426869
83502.9587557181
83489.1680715499
83466.2544323323
83471.5292450412
83486.5331202456
83484.6913426414
83459.908782319
83555.979962048
83554.8235105711
83518.124881222
83510.365047174
83502.9814324951
83502.9925080795
83503.5296045522
83502.9594790431
83502.0114031664
83503.5918752572
83497.6771757159
83497.4506509327
83492.0262841009
83490.5543871664
83472.6349453294
83489.2133569325
83508.138522999
83502.2844944046
83523.478032617
83563.7572114843
83547.8860885555
83527.1224031137
83510.4460596968
83514.32607775
83489.2022099897
83479.0494807411
83484.9795147616
83491.6733890403
83496.2461282413
83495.0918536424
83495.8543387341
83497.4325473216
83497.5080691218
83497.115308273
83498.4452527252
83498.288214613
83500.2035379042
83500.4418109113
83498.773634139
83499.2779585284
83502.3786895918
83502.5668250513
83509.3247962533
83508.2970778588
83516.7252305669
83516.3112872925
83524.9316377995
83525.964596841
83533.9162271232
83533.1213625953
83541.0253491059
83541.4995567162
83536.0098436281
83535.411349486
83541.6419286495
83542.1460785754
83537.1393367726
83536.3180921437
83534.0440339555
83537.0242496028
83535.8114066358
83533.6919164452
83523.771352713
83533.1704734983
83533.5349766182
83537.50554722
83553.1772595889
83536.6860786476
83537.6573930962
83547.5190178671
83544.7964943106
83539.916213792
83539.7006147587
83541.8214927829
83539.0454448886
83538.7369423779
83537.7300496611
83537.1051752275
83536.3569302411
83536.0997299158
83532.5808561374
83531.2883769825
83529.9281651626
83528.8065271101
83527.451848097
83528.7825199108
83529.4679848163
83527.2906789138
83524.7313395166
83531.8186864711
83515.6153486119
83519.8154872394
83518.718923994
83508.4129581164
83549.1432231353
83513.3760600652
83506.3617730493
83502.3704170347
83499.4370978453
83497.3732603506
83491.0728405612
83489.0629312177
83477.8390401613
83487.8603718881
83499.9578382442
83507.4098818289
83524.9057070449
83504.0551436543
83495.2255904954
83510.7452723203
83499.3116966958
83495.9028102504
83497.3072755638
83498.4421492356
83501.6070860291
83499.8151282491
83493.287059499
83491.1049131662
83493.2934827478
83492.8178999006
83493.2645424442
83491.7095011586
83492.7160717222
83493.2502208394
83495.5143047719
83503.4548622032
83490.6967481242
83489.1570230507
83498.7086481761
83493.1871127669
83490.9874197422
83491.5316131358
83492.165990149
83493.6471479807
83493.3126454297
83495.6524835627
83495.860416217
83498.0012445193
83498.0890640809
83498.6631513573
83498.5873455781
83499.0079002777
83498.9259560395
83496.59072881
83496.7709299958
83496.9062845587
83496.732697904
83496.8909045026
83497.0663496822
83497.1786319649
83497.0534489196
83497.0844781607
83497.4460511956
83498.6744118307
83498.4898437399
83503.6692692725
83503.5266490237
83511.5014646049
83512.2385994517
83518.5634269139
83518.8041549014
83517.5444683306
83517.2295572112
83525.4198632455
83525.9937233818
83535.605645604
83535.0083244369
83542.0341570269
83542.3221352295
83550.109152065
83549.5688332536
83554.5700492192
83555.1473380143
83550.2282302183
83549.507645008
83552.8551444269
83554.078572215
83549.9692299269
83548.9259187816
83543.5958684404
83543.4579125979
83541.6672999471
83542.2214304453
83541.8644156479
83541.393487471
83544.2162414655
83544.1618284851
83539.1063220168
83535.7082513153
83539.1645446321
83540.2047735195
83542.9588026605
83541.576161149
83538.680198093
83541.856357828
83539.2449492364
83539.0839007471
83531.2728157822
83537.5851244631
83542.4825705516
83539.3243127646
83531.2622781506
83518.7177555142
83504.9800543684
83489.6548903485
83481.986317561
83473.7755710192
83477.1417289175
83472.4602000017
83479.9288498924
83492.3352786307
83506.7308805164
83502.7268963611
83493.5178689514
83497.1494515075
83494.0097310072
83505.9543283295
83503.4377768655
83497.7583188496
83484.8531658432
83489.2433754512
83494.6442795469
83493.1838148827
83491.3900458422
83491.7972068356
83492.550433803
83492.3484910332
83492.7660543252
83491.7748793471
83491.9933619343
83490.7790854226
83491.2462095004
83484.4245906623
83492.0584705076
83489.8740636441
83488.1097911195
83490.1866378293
83490.6543835102
83489.5541433885
83489.5365526104
83491.5203937505
83491.5553124806
83493.657050027
83493.7202716911
83495.768836963
83495.5575245054
83493.5660713213
83493.7206479996
83494.8604468523
83495.0746378817
83494.9059461892
83494.7133645917
83493.5768167463
83493.6213235117
83493.3538966613
83493.2391043789
83491.8308584284
83492.1225316188
83495.3562040226
83495.1414762414
83496.7819354223
83497.0110130088
83501.7104592128
83501.8677001481
83511.5005703131
83510.5722243645
83518.4534205332
83518.2223846193
83519.0371204778
83519.2752604827
83529.7939872596
83529.4425811763
83527.9052377764
83528.2594525908
83539.7364751035
83539.1976161103
83549.076588782
83549.7222642952
83546.5114199817
83545.8722843287
83553.8619380984
83554.2060679329
83561.6362357761
83561.3909363567
83569.3036745762
83569.4829301151
83562.907071172
83562.3132597202
83567.7169294355
83568.1186081495
83560.8503830574
83560.1808643765
83565.0051630687
83564.9127038656
83557.6369841623
83557.7396722435
83551.2871954571
83551.7395126497
83546.7105693598
83546.1532021918
83548.6555944445
83549.0101938551
83546.1483931007
83545.8148059648
83547.0646021278
83547.1154660753
83544.6349698676
83544.1016959068
83541.9310124239
83543.9587251374
83545.7557258913
83554.5397725706
83545.0774346772
83543.7396616849
83545.0911566919
83543.9385884584
83544.1680539127
83545.2915349347
83540.6926365471
83538.4813571994
83529.6281338662
83538.0425161755
83543.0131575575
83543.3422683196
83542.4086658197
83542.711887547
83545.8397145928
83541.8578834853
83537.8430665963
83533.0782429199
83535.4948578853
83536.6982708868
83533.6659227425
83531.6307049403
83533.8568729337
83537.2961799504
83540.3440062046
83540.8685082447
83530.7219982612
83540.4117578609
83534.5061040894
83531.0599161238
83531.514500328
83530.1409334629
83519.9185648125
83520.4640245926
83522.3433824758
83521.4626686882
83523.2937155924
83526.9949659979
83519.95863938
83516.9943107737
83521.3198697609
83527.1769144748
83514.573592185
83517.4242343064
83516.2689706663
83521.9274180117
83524.144204145
83515.3932433162
83515.2587416666
83530.0254114542
83515.6102190339
83509.7591741619
83504.8865267527
83513.811248861
83503.419494062
83497.3486397339
83485.8787950578
83483.3042767037
83480.650805368
83480.2622680218
83467.7030154663
83463.6458230418
83443.0670764407
83456.5210788613
83438.8907348275
83432.8174925601
83468.7860380333
83468.9034531643
83481.3119110063
83475.9672093769
83493.4912907805
83490.172487778
83491.6424610808
83492.6928486013
83489.2445664995
83488.7993803035
83491.2816025193
83492.2856262613
83489.4355784181
83489.2694579589
83489.1349613416
83488.8373775341
83484.7962755021
83488.6326188662
83487.8718527617
83487.3125315335
83485.4059569664
83485.7368155867
83485.3435686736
83482.0301700456
83487.5928463727
83487.7426609202
83486.6011320795
83487.2248178655
83477.6218719394
83482.7223052909
83483.5995547921
83482.8012601105
83485.6916520727
83485.8924021427
83487.6109954042
83487.5537557623
83489.371143947
83489.4228718088
83491.5430826194
83491.5719620774
83489.0873152149
83489.4331876888
83492.2515860363
83492.0482475131
83493.4024948709
83493.7718656339
83494.7926165989
83494.0828097935
83493.3846005219
83494.7706584473
83489.3302363033
83489.5734202849
83488.6966461488
83487.0189000089
83491.9021585644
83492.4786408468
83496.3475297546
83496.6077938836
83506.6222859694
83506.0752420413
83512.1431427531
83511.7964040513
83516.0555095638
83516.2916468914
83526.6230695142
83526.1105154985
83528.734851022
83529.1646569245
83543.4169525761
83543.0019813625
83542.8379102884
83543.4130026861
83557.1504509326
83556.6396873722
83553.8473439924
83554.451145589
83564.7515956478
83564.3983697865
83559.1732882333
83559.4802591014
83568.795041725
83568.5953713841
83577.9003811353
83577.9884560054
83587.5856224241
83587.6631032554
83576.9961318406
83577.013167914
83584.6707582394
83584.9075263145
83574.3802892895
83574.0731262898
83579.9238924297
83580.260786383
83569.5577435233
83569.0608439348
83561.1629286429
83561.4877139032
83554.2005533204
83554.1472491322
83556.1689387288
83556.2767192091
83549.5005566291
83549.8316367838
83549.2785438611
83549.5011567309
83546.059252556
83546.201880408
83547.3029004779
83546.6240747315
83544.7931525101
83546.2377373653
83545.5141710916
83545.5316801959
83544.9260086558
83544.2039458481
83543.2414216872
83543.6749384951
83541.1908903931
83541.7089424204
83546.681641811
83543.4434509937
83540.7608787741
83543.7529078131
83540.8908165639
83537.7383821386
83531.5502703564
83533.9063491754
83523.5626147437
83529.9579345933
83523.9366320977
83520.3692496633
83515.4231083618
83515.0319028053
83502.7225966686
83503.4048035161
83510.1135436874
83509.2581230555
83512.6622988113
83513.3434873534
83505.1277733592
83504.2509768069
83509.4664965414
83512.0068159698
83518.7359779469
83514.7505213286
83505.5009503478
83505.6256886872
83503.3666705288
83500.6226959078
83493.3173579866
83493.3500329485
83487.9772551762
83487.9680487841
83478.5099357837
83477.5153456081
83467.2317204221
83467.0374495377
83455.2316604089
83457.6730714231
83450.7299311486
83447.5818464251
83429.6301768631
83425.8633620719
83429.7023452863
83421.1029696384
83407.9104459935
83408.9092083791
83385.1566254684
83385.8620594787
83429.0470946128
83428.7610746714
83458.9411562396
83460.0595281673
83474.6216355133
83472.2071439966
83483.0984526722
83483.6512350867
83480.4867708579
83479.1792885007
83485.8063916291
83486.184549939
83484.0121966453
83483.5283233985
83488.3383706914
83487.6895568985
83486.4847323681
83487.6484207088
83484.0886973791
83484.8061130709
83483.7297249532
83480.9456653134
83480.134730727
83483.3806217103
83483.3241714835
83481.6228159226
83481.462254078
83490.8937115491
83487.0963415255
83485.0565091237
83488.0245061251
83488.9977420434
83491.190398862
83489.466776102
83487.6157807396
83488.4173991636
83502.8728493675
83493.29368101
83504.5471625842
83533.6597339946
83538.9944571137
83498.2096739484
83474.1822125214
83447.9552652317
83461.3632272742
83478.7670655707
83482.554401284
83479.1146578064
83475.8522832184
83469.1262614844
83480.0712254484
83483.3561413846
83485.2763258474
83481.4456289886
83464.3331135024
83477.3139522968
83477.1541419183
83461.7002386872
83486.3091485654
83487.2004139539
83488.7173189699
83487.5384462581
83486.2330098694
83488.1250273297
83489.0742132117
83486.479582847
83490.4818225212
83491.4128461952
83490.9810243073
83490.7447463139
83494.5500875418
83494.8816806347
83501.4547287388
83500.5633652753
83507.4199764438
83507.9348146485
83516.4209311287
83515.4427619745
83520.3137323416
83521.0699084849
83532.4561657626
83531.6983522664
83539.9224561605
83540.3009560485
83561.0741470533
83561.1843645278
83565.2123314628
83565.1887381718
83559.3145979871
83558.9917646705
83571.9437861853
83572.5070166695
83569.0003178793
83568.6964738263
83581.3792836122
83581.4844172202
83575.4694346681
83575.2581599259
83586.6836499234
83586.6924717001
83598.5380803885
83598.9047941808
83611.4990854266
83610.7175666263
83597.3033847256
83597.6946708339
83606.9430312674
83606.669588694
83591.8625714983
83592.0534776412
83592.6645070639
83592.1642572326
83593.9899968506
83594.0746116651
83587.3633855876
83587.4014956288
83581.2180807821
83581.2830104084
83575.560743021
83575.5520022107
83570.7201319367
83570.8055139315
83566.8740345126
83566.7850895097
83563.0811289174
83563.1522261196
83560.103265689
83559.8177410141
83560.2259855628
83560.895796224
83567.2091330512
83566.6711135079
83569.535087524
83570.1273799898
83575.9521634498
83575.4432878601
83579.9555836908
83580.5049229326
83587.9704928827
83587.6887050803
83587.6877216406
83584.6959000522
83591.4416116996
83591.7515820867
83590.0048705585
83589.0714005935
83588.4761238677
83587.2022264042
83582.6727324069
83570.4715531554
83556.9499067646
83532.7470408646
83522.6453906745
83494.7688076146
83463.8879815115
83450.0178055774
83428.6426169584
83422.4041134895
83414.2963622785
83414.4415668765
83448.989826834
83451.3363249935
83470.4831347898
83467.8964143427
83463.7517259112
83466.1565644966
83477.4963965487
83476.1055700936
83475.3227916415
83475.8765730299
83482.2012990177
83482.099032924
83481.6550900745
83481.2546460871
83481.7200056421
83476.8055045472
83475.9190392126
83482.3056789365
83484.6460447068
83485.6181155272
83452.1650881646
83476.9254131456
83489.3310839386
83474.4433143941
83463.0465817944
83492.2413529181
83499.2049717341
83484.2442404984
83521.4987042077
83507.6505907802
83505.3122498159
83506.9469863688
83505.5362870332
83506.1472447633
83477.0818282608
83494.4488978061
83495.2383528072
83484.0146102494
83529.2590312421
83523.4815701614
83515.4176860213
83514.897483121
83509.0309955224
83509.7394108641
83513.7294311077
83512.8550317504
83523.7371110403
83524.3341532669
83533.9696079932
83533.7416638652
83539.5932991949
83539.804853174
83548.8806526045
83548.4820948776
83557.9135150611
83557.9800682252
83571.0255560461
83571.2421977025
83581.986727379
83581.8937474113
83588.564987983
83588.4996192868
83590.4181078776
83590.6877802864
83590.907481802
83590.4037757882
83586.1484244754
83586.4389226493
83602.8398194746
83602.9597977097
83595.5888727754
83595.419828557
83610.1793624473
83610.7711732125
83626.3879720338
83625.2840217469
83640.1134013365
83640.649009084
83622.8556013999
83622.4777209638
83623.4332733281
83623.8092848746
83626.546308635
83626.5472169845
83617.0266978906
83616.9749091519
83609.0584008406
83609.0465786072
83600.573423593
83600.5694722887
83602.6515379062
83602.6659630064
83596.2118379424
83596.2521039397
83588.4640677386
83588.6137749031
83582.7888618877
83582.7739213162
83576.384879452
83576.5866854056
83571.9445814521
83571.8715185112
83567.352331624
83567.504401013
83564.0503796869
83564.0875843875
83561.9049708496
83561.415079633
83560.3034237227
83560.7525166674
83555.1802121572
83555.0092255938
83555.1669253252
83555.1174164115
83550.3485034671
83550.6731941645
83551.2788160562
83550.9648797693
83546.6942733744
83547.4904308842
83546.3024306067
83545.4650155635
83541.9713410641
83540.7022781248
83542.3267138614
83543.3738847826
83542.1108376946
83541.1115453029
83539.5865776728
83540.8360859984
83538.0205942879
83537.1878122869
83538.2496775059
83538.9476776519
83534.9920431323
83534.2115994397
83530.2067113243
83530.9552404052
83533.6364547147
83534.0282196649
83525.2785141084
83527.0302630728
83518.0313596117
83509.3626347439
83525.8076586113
83524.479355055
83529.0868421864
83522.5401688576
83506.9244907044
83491.5733957683
83490.8767396392
83491.0669187967
83500.2555120382
83499.0559498014
83487.1343411907
83487.2921099547
83495.3258352763
83494.8027515027
83499.8907039061
83500.3195440382
83499.9060334812
83496.5417241012
83489.6510367254
83486.0592473333
83457.4374303086
83439.4375081104
83393.6142884193
83391.327754774
83402.9738277901
83357.1866649625
83354.4776723423
83332.417073224
83328.5619574327
83324.8893395218
83329.5961066742
83361.3968311359
83356.4420460299
83339.0542446941
83343.3465213776
83401.0119603682
83402.2068868793
83440.9000866172
83442.2773875713
83433.4485575609
83431.5065177688
83467.1430108203
83465.4811339165
83470.9678105075
83470.3895935094
83487.5970461721
83475.5236425457
83476.4511739556
83477.6598326415
83488.1602366813
83480.3692501914
83483.2511832925
83484.2909092123
83467.4166156707
83481.4343308769
83487.8259984316
83482.3671994347
83526.8878188831
83496.9523825781
83500.8531921113
83493.625544807
83532.9495045794
83517.7048257777
83524.1537080972
83550.7495095867
83544.9145655087
83520.4961068095
83513.0685490418
83525.1770880752
83516.6523229681
83516.4403055412
83512.5951924195
83512.1511131854
83506.3343645404
83507.1363863091
83506.9156388391
83505.5537443324
83508.0094685576
83504.6486052116
83500.5759213647
83502.2459646376
83503.8882696748
83504.0995693122
83503.2200961828
83502.8695634652
83503.8348148281
83504.704600512
83507.1708658656
83506.0823925031
83508.1795553427
83508.9748109451
83518.9585009336
83518.3787771097
83526.0127841825
83526.5172462102
83529.3556350949
83529.1439176745
83538.9521242061
83539.1051718958
83549.112521532
83549.1092094113
83559.3176204075
83559.0167659889
83569.7738429085
83570.3922444576
83585.9548604739
83585.3630213368
83600.0160678196
83600.3400492418
83608.3109710156
83608.2076345078
83611.175602853
83611.1496252311
83609.7666710974
83609.8539869326
83629.0182715928
83630.2799030062
83621.0164263901
83620.039247759
83638.0429711457
83639.809636195
83657.0258762183
83655.9892718679
83660.3967254312
83660.9654443591
83665.6210003802
83665.6256495149
83654.6352630223
83654.571264567
83645.5429805933
83645.5184343577
83634.7807748158
83634.6474830648
83637.3334016724
83637.1743971152
83629.2891929548
83629.5475890589
83618.9886899409
83618.9276748846
83611.5736527263
83611.6801234176
83612.0476325355
83611.9081097254
83603.5346143538
83603.4873004051
83596.9320205626
83596.9429944845
83589.6816711103
83589.5665513274
83583.7049256829
83583.7342085854
83577.6473612247
83577.4828483727
83572.5864577953
83572.70153565
83568.0562705277
83567.8670304089
83564.0417681937
83563.8582076934
83564.1085952672
83564.1759143801
83561.3832188627
83561.0217188537
83560.3077053511
83560.4531748306
83561.1686047441
83560.8853669518
83560.070916997
83560.149916513
83555.2645951534
83555.278356811
83554.1938738996
83554.2631088062
83549.9088655579
83550.2460496609
83548.7547528609
83548.4657328638
83544.0914821225
83544.8732582459
83543.3234380181
83542.567665881
83539.594570047
83538.5734943363
83539.9055566713
83540.7882303423
83538.7070240157
83537.4897450642
83536.6367328368
83537.9126785379
83534.8712336597
83535.6587202613
83534.3741992461
83533.5308763167
83531.2300467747
83531.4960802637
83534.7781283055
83534.5585633848
83536.5229286636
83536.972132528
83533.3125753199
83533.3698381947
83531.7994493682
83531.0366534809
83531.2529595853
83530.8214282888
83525.5765031205
83525.9752425817
83525.6757141908
83524.5236970862
83518.5099657806
83520.8795735083
83506.9639088163
83495.9096908663
83488.8969808973
83494.6468990511
83479.977396829
83479.0799913771
83462.8013827393
83463.1782129214
83476.8743269718
83477.1983960485
83474.5512664873
83468.1875366668
83454.1562178305
83446.2425044842
83440.8200076942
83411.5532501245
83390.5669496674
83358.8460135769
83308.9492527404
83318.8712916335
83326.6198615952
83321.9609518572
83312.6753228903
83302.2252104302
83303.7202911169
83288.262284202
83292.6183317856
83313.057372254
83315.317923236
83348.7749278011
83342.2815887705
83380.8884809423
83375.4088351498
83383.1586318935
83389.2620113908
83386.6515166797
83383.3408612607
83417.5762424691
83416.4055368238
83435.6699089126
83431.8232685386
83461.7613569022
83458.8844553216
83458.5435623371
83460.5583707649
83466.0095459784
83462.0934076746
83463.4654553165
83465.3718450394
83485.5010424407
83480.2419221512
83488.8341801576
83499.3640154803
83492.7822208937
83485.9078964972
83487.8044272316
83490.3111930236
83487.7284228814
83491.175726474
83495.1912123271
83491.3676014231
83514.1041939774
83505.7540154432
83514.2194975259
83532.3198474536
83508.2779545796
83505.228628444
83500.677668603
83509.9683826892
83502.5246870984
83498.096704375
83490.6738567343
83488.5536365895
83495.4830412801
83494.7220388659
83497.9407144821
83498.8217787502
83498.3267228268
83497.7966108167
83490.2679438791
83491.3375487416
83493.6443243661
83492.4769927896
83499.4857135204
83500.4162775544
83508.5216369517
83508.0177456671
83518.7991205636
83519.3735804771
83532.1754351543
83532.0394586585
83545.191859345
83545.2045111101
83551.7012510345
83551.8337253543
83557.9424357368
83557.4831499798
83580.829424102
83581.9625055732
83601.9225553788
83600.433349351
83618.5551196968
83620.26935976
83629.9877826925
83628.2793071198
83631.5977016865
83633.1181285701
83655.8821379661
83653.054576231
83649.0722202855
83651.4090720044
83670.8997858117
83669.3142355617
83675.4923995874
83676.2433896709
83681.8362010867
83681.7573004605
83672.5385069995
83672.4554163131
83674.851574632
83674.0547462406
83668.2972345247
83669.1092642176
83656.9324068143
83656.5549008192
83648.6146298835
83649.0784220111
83648.2626587077
83647.5694516768
83636.8979078438
83637.3111038816
83629.382247004
83629.01658628
83619.3519437471
83619.501451365
83617.5710291976
83617.3794764369
83610.2681305499
83610.4707244771
83602.7784889376
83602.7597385656
83596.3338957694
83596.3913196256
83589.7389655382
83589.7485205182
83583.8406686169
83583.8845332019
83578.0768237003
83578.1135276072
83572.9509580137
83572.9250957394
83568.0676935424
83568.2826657774
83568.2211059304
83568.0532927595
83564.0414296199
83563.9044737325
83563.9224030107
83563.9455133905
83563.5153174216
83563.4086379748
83563.0868389761
83563.0921324355
83560.478753463
83560.1894381336
83559.0457906243
83559.0988387294
83559.1150286052
83558.8157850564
83557.5312813143
83557.5770701781
83552.8397356595
83552.6998186796
83550.959454351
83551.0983639575
83546.8395964083
83547.1367615637
83545.048470479
83544.790375439
83540.4966910469
83541.2022185302
83538.2891644462
83537.6368158541
83533.7789431061
83534.3952637464
83531.6224054738
83530.8049294146
83529.349799456
83530.2857571569
83527.3230440737
83526.8495148943
83522.8709572489
83522.689783493
83519.3232341613
83519.5982434112
83523.5297610875
83523.4622485572
83527.6262777021
83528.0964531204
83522.9244578258
83521.8505056677
83525.9585478686
83528.7487291552
83525.1582163059
83521.2789460865
83516.5897647306
83517.9306639329
83540.5939187204
83527.1059067584
83520.9123125056
83511.4382907352
83532.5097513378
83524.8813595987
83521.5696504979
83515.7282711068
83520.7895395302
83528.5858635211
83516.4597437132
83517.5570065894
83510.0781227385
83518.9309327089
83506.7958497045
83500.7967453234
83486.4734721437
83485.2012727332
83483.6512705652
83479.7454718005
83466.4841573592
83463.3324429901
83446.9787817004
83447.7063738658
83436.4169266262
83436.620891537
83451.0044033271
83452.2740327817
83437.1692952218
83432.5957173407
83433.6148467187
83427.5898615161
83407.4633142179
83411.4685223455
83406.597315671
83400.9140278148
83369.5697952412
83367.8705305638
83346.8929685788
83346.5529401131
83333.5069328673
83329.0286627651
83303.9484998053
83310.6476079828
83309.0114049982
83307.8064148336
83325.9750678426
83303.3843492015
83295.7627739425
83308.5828170545
83324.8820072828
83310.4186920488
83301.3232468127
83311.4496538649
83302.3505347776
83293.9098189832
83289.127042429
83300.5721710853
83291.9738311409
83281.9950861562
83273.4792621784
83279.6038280381
83292.1579655081
83286.4273870915
83313.100799314
83322.7120645997
83321.1661154291
83330.2686280459
83327.2964550038
83317.5302758722
83316.3774101681
83317.2711918158
83354.313466146
83354.5441762525
83347.8992461622
83348.2166558802
83341.6596408312
83341.3761891667
83334.7642978174
83334.8120302977
83380.8019335334
83379.8648546693
83415.1424044325
83416.2837627854
83442.6573742278
83442.3692054781
83445.3341198436
83445.6055846224
83453.4181585473
83453.9252583509
83460.1970257531
83460.2434157331
83468.670389467
83469.5478214754
83474.5563954174
83474.0098162606
83482.7657664909
83485.5972240863
83484.5345516299
83486.0397289352
83488.9833425954
83487.6859156805
83478.6643066198
83480.3555707196
83484.381040091
83485.8824410531
83482.8740294488
83481.4491593055
83468.4259301343
83470.2133746657
83473.7922147489
83472.0396254661
83482.3737274321
83483.4944088374
83497.2103221415
83496.4889608691
83514.3258386203
83514.5957745897
83535.6252092913
83535.7326739186
83533.4792828776
83533.2024560585
83560.7027475793
83561.4599586215
83591.8485650962
83590.4453261618
83615.1328863326
83617.1399526963
83640.1074017258
83637.4163155562
83649.4999237618
83652.4521558929
83672.8445733825
83670.6161941388
83674.8342358058
83676.8694260922
83686.4629456429
83685.6064007422
83690.1736381194
83690.5733382858
83686.3411819292
83686.1212058999
83685.1327247954
83686.6609341961
83684.5825553199
83683.2112761945
83677.0231086495
83678.9206005664
83672.0070777172
83670.580152297
83665.8355774654
83666.9873691143
83656.2053673687
83655.3721933121
83649.5178829749
83650.2927817669
83643.028436114
83642.3808123596
83633.170139815
83633.5826077789
83626.1286878909
83625.7790096998
83620.3760265422
83620.7416088021
83613.6801229619
83613.439109413
83607.2771969105
83607.4936452881
83600.8724374567
83600.7671581508
83594.8874046327
83594.9809446215
83588.9475824247
83588.9212383497
83583.2910472049
83583.3308444147
83577.9307040147
83577.9429166479
83572.8718587403
83572.8449914591
83572.4169212152
83572.468956272
83567.9756677956
83567.7825551767
83567.3241332393
83567.4619809301
83566.7994680317
83566.6358632634
83565.7792749235
83565.8723787203
83562.2406156387
83562.3259701779
83561.5962857228
83561.5878029261
83560.5264038605
83560.6162750962
83559.6967830368
83559.6841048988
83557.0738365608
83557.3470198135
83555.7297824209
83555.6933816546
83555.1038830402
83555.38815954
83553.7336605833
83553.6631144606
83548.9442948803
83549.2242905378
83546.6353269848
83546.2517001425
83542.2042985499
83541.9471065269
83538.0985199198
83538.3148611477
83533.0682429339
83532.9551226438
83528.6533313681
83529.2432528228
83526.4061216863
83525.5491347151
83523.9417273366
83525.0386116148
83522.0237887461
83521.1633651997
83516.9166720757
83517.0689675089
83513.5357958419
83514.1075368241
83512.5253798094
83508.7095036895
83514.3058230699
83514.9475165918
83518.2616489194
83517.9347084396
83511.6676348106
83511.7273826796
83506.3910266201
83506.5499411285
83509.4763793272
83508.7485637328
83501.7148370173
83502.1299102296
83508.9559402042
83509.6784380287
83504.2296669128
83502.6036823565
83510.7381900802
83515.8088788754
83504.0230618877
83500.223828549
83493.5567023887
83499.3230386946
83490.2802533551
83487.1374233999
83478.9865211091
83489.6175673906
83466.8578342631
83468.5889066671
83452.8302105421
83456.081846001
83431.579685326
83429.7070460852
83415.1852808086
83416.8326312481
83399.9507037932
83397.1806393161
83421.1650079543
83423.6349025277
83416.1096707587
83402.899613448
83373.427149115
83379.7717178508
83381.5183776438
83357.4130462042
83355.2609698703
83331.5733303465
83334.8115755805
83324.7476973445
83324.058994697
83306.8396723203
83303.4506229816
83308.2465063058
83302.0279872823
83298.6036407834
83306.9799202727
83289.0178331646
83285.3887092562
83279.5724837795
83281.2355852091
83282.4313194066
83277.4729606086
83286.6032565655
83292.4853604758
83286.8056904586
83281.0719508578
83277.8475462742
83284.2584789208
83279.1605900739
83272.895703863
83265.9429154406
83267.1283758522
83262.0169648417
83262.2288850668
83257.3742643117
83257.2338583996
83263.3101851057
83260.7696725314
83264.671918124
83265.9321567601
83268.0751818035
83260.3102960915
83255.9266330924
83252.4601811261
83287.2386630851
83283.7650631719
83270.5119866105
83272.8397668694
83253.6466211786
83249.1488141272
83228.8397778851
83233.3741263964
83284.2527270672
83280.8945017283
83266.2580273281
83269.1316996051
83251.041278602
83245.4606263312
83221.5501509305
83231.3222223853
83211.0258751831
83199.8703477926
83181.6144251929
83189.3881718105
83217.0807440613
83211.1433847366
83208.244170499
83210.1948582787
83207.9178354827
83206.6999130469
83206.9389226817
83207.7052842013
83208.4126509128
83207.7213145562
83279.5272145822
83281.0221165534
83281.8613288429
83280.4815038836
83283.8018178222
83284.1781267382
83309.3474459927
83310.3351861709
83316.2542892973
83315.7122021219
83325.6044547363
83325.7394386288
83338.8710130903
83338.6077340376
83355.7410597172
83356.0606301316
83377.5311605987
83376.6491627754
83399.6805443262
83400.8489339694
83426.3401874535
83424.7758195646
83448.1678945092
83449.8762827658
83472.6617768599
83470.6724672062
83488.6645690498
83490.6786343781
83506.8827222002
83504.8597581463
83516.4981051333
83518.2856688418
83529.4084850478
83527.9247352206
83536.0309012883
83537.0095222314
83548.0526207432
83547.6473106346
83560.7709647236
83560.7502020691
83579.3010157639
83579.3163375412
83603.8282774441
83604.2866304502
83626.3258491691
83625.3023599192
83642.2593288769
83643.4110464403
83647.2183887641
83646.1384634781
83645.625444585
83646.5024215175
83640.1128929821
83639.3833547174
83633.8441550216