/*--------------------------------*- C++ -*----------------------------------*\
| =========                 |                                                 |
| \\      /  F ield         | OpenFOAM: The Open Source CFD Toolbox           |
|  \\    /   O peration     | Version:  2312                                  |
|   \\  /    A nd           | Website:  www.openfoam.com                      |
|    \\/     M anipulation  |                                                 |
\*---------------------------------------------------------------------------*/
FoamFile
{
    version     2.0;
    format      ascii;
    arch        "LSB;label=32;scalar=64";
    class       volScalarField;
    location    "1100";
    object      k;
}
// * * * * * * * * * * * * * * * * * * * * * * * * * * * * * * * * * * * * * //

dimensions      [0 2 -2 0 0 0 0];

internalField   nonuniform List<scalar> 
162506
(
0.0150874384173339
0.0150914174395308
0.016298483523305
0.0164061577051241
0.0167317962075202
0.0165728458295003
0.0151721385727086
0.0151278936116015
0.0164311372714283
0.0158106850315805
0.0153535826307547
0.015031449998732
0.0150685530633379
0.0150490510341116
0.0150132785693257
0.0150111129112823
0.0153245830238454
0.0157351452421967
0.0150448999838184
0.0150920088459435
0.0150561205630777
0.0153412033484003
0.0157499525044793
0.0158004576599935
0.0153758461677017
0.0153291032462523
0.0158118068775798
0.0150103028761754
0.0157516776281213
0.0153092747523214
0.0150027631414169
0.0150029870601337
0.0150132933080464
0.0150007567538323
0.0149985326089849
0.0149980729304822
0.0153027721176542
0.015750902662425
0.015000676841663
0.015075760875062
0.0162854801396238
0.0162868553757199
0.0150717900770048
0.0151160574330982
0.016942191766645
0.0169512054013648
0.0151187291702182
0.0152570867200631
0.0173879866761399
0.0177210760718233
0.0171052299108345
0.0178912120431637
0.0188732820549978
0.0183098432116593
0.0153536648420512
0.0153030192011358
0.0179965979963197
0.0171592099558665
0.0152291549654959
0.0153346208516249
0.0172187164352241
0.0164794368941564
0.0151769323859315
0.0150524436095979
0.0150163649015429
0.015348405782136
0.0158681894366275
0.0158296424087485
0.0153008631805886
0.0150080527267416
0.0150285241864046
0.0150161665074672
0.0150051477449944
0.0150106213046729
0.0150288331205756
0.0150320621760614
0.0150755660026494
0.0150740607246925
0.0151496119100475
0.0164186907821761
0.0164364999673422
0.0150885541257828
0.0150133181408008
0.0150029099643235
0.0152981225740936
0.0158259488746347
0.0159353881992427
0.0153536403326994
0.0150018576663772
0.0150105531057322
0.0150023461933817
0.0150017028360588
0.0150002017316707
0.0150016842086391
0.0150056199181924
0.0150010575657935
0.0149989927386177
0.0149990695340145
0.0149995972826534
0.0149992869753074
0.0149990335949243
0.0150012857197397
0.0150010932237053
0.0157505481807256
0.0153026016375796
0.0149986578982314
0.0150033828479988
0.015308819134282
0.0157507506352064
0.015010939789518
0.0150707141842144
0.0162848841114704
0.0162846431881769
0.0150740094401811
0.0151145570375114
0.0169491025761382
0.0169507425555765
0.0151214088091274
0.0151609756247074
0.0177427045090671
0.0177086230208802
0.0151609683902174
0.0151559742034738
0.0176894521041494
0.0185155105538603
0.0154778405651381
0.0157733398965556
0.0193271294555062
0.0201357506862319
0.0187404893240908
0.0197544360369311
0.02128192599244
0.0206036793099201
0.0166404315058718
0.0160703163195527
0.0201731820778864
0.0189447458299319
0.0155807465961354
0.0154595037325596
0.0192316948787119
0.0181480281126843
0.0153564358411758
0.0153191007307412
0.0180739319761102
0.0171542757435389
0.0152749556120701
0.0151438207377887
0.0171857340576007
0.0174783206992138
0.0153348842477141
0.0151510231043524
0.0166207400866369
0.0166981200775249
0.0151203414829844
0.0150080612151046
0.0150015650619439
0.0153820114967074
0.0159814350410925
0.0159210453846753
0.0153476059770263
0.0149991339605049
0.0150044512402481
0.0149999921356483
0.0149998033779264
0.014999019215466
0.0149973537336916
0.0149981375702623
0.0149992995290133
0.0150004424773309
0.0150013926447842
0.0150060238165837
0.0150015113598712
0.015003595082732
0.0150140270918669
0.0150497370967794
0.0150141282332915
0.0150119431529114
0.0153238174838196
0.0157333458023492
0.0150455777433647
0.0150882390724776
0.0162948721586988
0.0169447245268583
0.0151167604191357
0.015112474120321
0.0169381687481016
0.0177001622978121
0.0151561115605168
0.0151529436378609
0.0177391647978349
0.018663796214064
0.0153745857890557
0.0153852956300756
0.01867165871946
0.0185900399827065
0.0154163385597668
0.0160095486629426
0.0197382708170851
0.0195753756787799
0.0160847947892498
0.01627916096469
0.0199770324384708
0.020929582136774
0.0172501634896163
0.0174642249773774
0.02139080784755
0.0215299872365002
0.0172733188752318
0.0165755869758721
0.0205513176385748
0.0214114847742508
0.0167620540774825
0.0173597871750437
0.0228682274424215
0.0248019253608451
0.0179857135273993
0.0186079084938142
0.0246888536814033
0.0251687100220687
0.0290170191933793
0.0266327665245404
0.0192639112916716
0.0190593819786523
0.0264464203669017
0.025819732204489
0.0188988201149301
0.0186103458713819
0.0233789254057506
0.0263197999190735
0.0251223116406049
0.0234563548495329
0.0178163530587519
0.0218782818474504
0.0241517388914308
0.0228177196397363
0.0208574168365133
0.0173613792523319
0.0224802415498406
0.0223282580843355
0.0170298920748566
0.0162415872649492
0.0220603941494307
0.0205338457254862
0.015726220280783
0.0154751569417575
0.0204120739611747
0.0191503079090826
0.0153652975231982
0.015216246775015
0.0191479073449208
0.0180896403527665
0.0151791191605172
0.0154001376330575
0.0185889697789455
0.0186843059168239
0.0154149094670391
0.0153323220863247
0.0175659467260996
0.0173564396191177
0.0151140833078235
0.0150459170426136
0.0165890938876326
0.0165844094427883
0.0150512522526058
0.0150065867430121
0.0159179874786529
0.0153470335829964
0.015000094233247
0.015000157633156
0.015001570271334
0.0150065624151057
0.0150010104291413
0.0150022385021091
0.0150047766365005
0.0159757600937258
0.0153804536072905
0.0153517582973533
0.0150004188877211
0.0150096505090622
0.0159306627912392
0.0166115378258273
0.0151527094985177
0.0150890382613799
0.0164278971785284
0.0164136157147063
0.0151510019912124
0.0150280519696043
0.0150086076807
0.0152998121231849
0.0158276028330135
0.0158213279299341
0.0152968923356759
0.0150033697369334
0.0150136345911895
0.0158641267105125
0.0150517618701648
0.0150157869126068
0.0153471398080833
0.0153527039842117
0.0150309246453877
0.0150675199364158
0.0157898277745402
0.0164049934414531
0.0151417077389734
0.0152427100954541
0.0164323692024216
0.0166318912670343
0.0164490100066065
0.01575436259828
0.0153310145073224
0.0150325459139499
0.0150695412872772
0.0157621256162457
0.015331069621186
0.0153751731142081
0.0157680018242476
0.017258787076377
0.0176110768020142
0.0171293882557921
0.0153430264037241
0.0152483002557691
0.0171287195575583
0.0179579925717246
0.0153268998754325
0.0154393763194076
0.0179093229223991
0.0187463971118616
0.0181667086107435
0.0192067963804309
0.0199514309828482
0.018747889427329
0.0159051939325729
0.0154942576537213
0.0184965224683393
0.0185731583422366
0.0154064443921398
0.0159948008567959
0.019686748325736
0.0198426133360362
0.0159388562550458
0.0159496074580948
0.0198637913432053
0.0217735307679597
0.0168017951684037
0.0174223731287899
0.0232503522172662
0.0255984242353712
0.0178680862567643
0.0177950632825081
0.0249948469536742
0.0277448566846141
0.019201517107688
0.0193824200749088
0.0272002182077143
0.0265267018307375
0.0195649968828577
0.019342284412634
0.0284008223164285
0.0325049392636475
0.0274061219630674
0.0297489336405617
0.0357771133662646
0.0303548926015317
0.0198054653211337
0.0193351077487282
0.0298746052096878
0.0279417311264729
0.0192182863128473
0.0190447058720777
0.026717264740508
0.025363645409504
0.0185726566701752
0.0180212168999896
0.0236290669322514
0.0232633446651594
0.0173841228034104
0.0172257351096175
0.0244848767147721
0.0239529985961169
0.0168208203899339
0.0158353417932291
0.0219187471793491
0.0218219255417021
0.0155143644628736
0.0152822121991387
0.0203790163322112
0.0215500808047808
0.015526111088705
0.0154627506086148
0.019933863086453
0.0200328404647443
0.0154888647992215
0.0152221072094762
0.0193160348680477
0.0182610222943837
0.0151697870622418
0.0151752820591401
0.0182537688406169
0.0173510514149331
0.0151195115252399
0.0153352803062027
0.0175537196157175
0.0166888425157015
0.0151252783763357
0.0150475510690981
0.0150072241859156
0.0150113885961354
0.0150051958909989
0.0150040785539563
0.0150039361102063
0.0150020941606579
0.0150443712171319
0.0150230536203207
0.0150544970042439
0.0153358143536243
0.0174643465869203
0.0171728951496366
0.0151411001017668
0.0152759592944356
0.017144770215039
0.017206834714311
0.0153372624758343
0.0153622047758974
0.018129246710438
0.0192001088577897
0.0154765902690016
0.0156204600470706
0.0189001053417308
0.0201119971129597
0.0161503586789872
0.0167159958781356
0.0197598062548414
0.0210513173232644
0.0204362288991755
0.0222383651149809
0.0225475983461542
0.0208759159003383
0.0174712111614706
0.0173139006111459
0.0208576553602194
0.0199129112862392
0.0162678058200111
0.0165699138440323
0.0204830434517829
0.0213622623863665
0.0173856013687849
0.0175366211455849
0.0212831337833064
0.0218425473817832
0.0178843423640071
0.0233642353413562
0.0238260890404929
0.025961711729662
0.0233869406488577
0.0188735661880695
0.0249825748917068
0.0259601654680475
0.019375982811986
0.0197052966963863
0.0266003951087257
0.0262509400673236
0.0277919068830646
0.0250352582636367
0.0199078557803071
0.0191453428164051
0.0244450806711045
0.0246513687893142
0.0184989221692658
0.0180747151582006
0.0248510997143961
0.0255004220914697
0.0179941374970598
0.0178872093269015
0.0256342882994871
0.0257125537011076
0.017879561462218
0.0194849155704133
0.028797183818279
0.0285715891463068
0.0194427388992661
0.0207607456026073
0.0306556777136148
0.0297618367347521
0.0204687673826586
0.0203390389969174
0.029618637629655
0.0288373527911825
0.0203686002135945
0.0199481480708406
0.0284543067486782
0.0294750338490651
0.0204634843737841
0.0211949690084361
0.0333762953090863
0.0325847186294351
0.0397627881256548
0.0323804913239572
0.0201643454425809
0.0194862834843249
0.0318902766661565
0.0312184066230458
0.0192936219660821
0.0189950621600107
0.0294604348670163
0.0273258917943598
0.0188777647210671
0.017983926030262
0.0261948689830805
0.0248832295591843
0.0176793217211395
0.0168146108429754
0.0160755012838189
0.015454580199819
0.0155063858366811
0.015702563835948
0.0164472042836272
0.0240438156392993
0.0256185393485749
0.0165368989952816
0.0164867541078235
0.0252939437374001
0.0248925273276365
0.0166458654879987
0.0166027309259942
0.0246070226020171
0.0252965960163168
0.0175138755369787
0.0174567137593245
0.0255174651951896
0.0259255469577265
0.0174757976079927
0.0180518911308476
0.0264803983502671
0.0260116521942796
0.0181220438617072
0.017317351161273
0.0246177047789204
0.016720994209059
0.018578046876421
0.0276979863281482
0.0295080388916645
0.0195213501123965
0.0190338488392947
0.0285416057219703
0.0273942788137616
0.0177885251413512
0.0167502906772245
0.0282875005153943
0.0307794465712128
0.0163269169071093
0.0162197491502161
0.0281167599022493
0.0256235580836457
0.0160800072349729
0.0156151326099411
0.023464817323076
0.0235578087595198
0.015643261982521
0.0155555718428071
0.0216481064089581
0.0205351976502581
0.0152732222359969
0.0152784634964897
0.0205196005030659
0.0193056357149904
0.0152277472198809
0.0154878069397102
0.019997535260835
0.0186644818005066
0.0154168605197437
0.0153956753318908
0.0185668875133031
0.0180698106531615
0.0151682900006033
0.0153179631641629
0.0180564579788418
0.0191197219408945
0.0153593022133165
0.0154569766990504
0.0203616678744132
0.0204823944309932
0.0158014593190559
0.0163480718983633
0.0220343106262406
0.0222552356987326
0.0171528161100368
0.0181996925151584
0.0236994707214586
0.0251536692986196
0.0190977629561075
0.0196244319388663
0.0275206653718128
0.0282754535632288
0.0199961240170477
0.0198438733717647
0.0271624217562287
0.0282944454742108
0.0208002828404264
0.0208306398082413
0.0289295177093935
0.0291536095028516
0.0202658741145215
0.0207800112479167
0.0308083615963834
0.0320604434843657
0.0371267255238779
0.0323590062677113
0.022534857835093
0.0228269357599395
0.0320682327280813
0.0307447490395041
0.0223626131648519
0.0213940718490359
0.0291863117799304
0.0332557793229251
0.0296506705484612
0.0282650316505095
0.0308632027967082
0.0274104026940056
0.0213040842869006
0.0208222376996007
0.0272707495834724
0.0273265278301833
0.0200891273418297
0.0195524418500425
0.0277482156499913
0.0285464806467681
0.0195766441739003
0.019498707267992
0.0287406922064109
0.0309649195399072
0.020933021476803
0.0209620688933293
0.0310377909865928
0.0309644043489708
0.0208573118012175
0.0208551240685142
0.0307302009059532
0.0339656979682083
0.0228336303083481
0.0226941360724297
0.0338454669908849
0.0328950283631754
0.0223013798089486
0.0220335453448135
0.0325178397070495
0.0313463972310771
0.0214771078151652
0.0205905123035644
0.0304851208468956
0.0325564465218844
0.0211744952310855
0.0214193410219042
0.0352177326614664
0.038033757766285
0.0216601009907916
0.0215240470620334
0.0383274487184256
0.0356879935628374
0.0438682802783405
0.0344401463594509
0.020482969430467
0.019644066667685
0.0340496835032935
0.0338500253403849
0.0194457411881891
0.0190916607463445
0.0317737573289352
0.0301323492223455
0.0184917685831079
0.0182068835649918
0.0281045559889744
0.0171912276981071
0.0164980119374435
0.016208933234836
0.0162998066750409
0.015743535208861
0.0156687552551954
0.0156028215430328
0.0155606048683864
0.0153306346247699
0.0152787611583747
0.0155796111318895
0.02508970223664
0.023463987505247
0.0154393209285163
0.0153375249328991
0.0219273989642406
0.0219030747616012
0.0153350724014795
0.0156238585182306
0.0234459627358358
0.0215816804935128
0.0155560913577082
0.0154935829595361
0.0214793861430817
0.0203315705356183
0.0152520739083956
0.0155951181963722
0.0217356300112612
0.0218274585089878
0.0159745881019929
0.0170583507738721
0.024019686355632
0.0245796291080821
0.0176643470914734
0.0174956349493446
0.0232196303312742
0.0250054253335639
0.0179216745164957
0.01876724562881
0.0257188974502764
0.028388843616771
0.0189356829191416
0.0200881994227763
0.0311464525336013
0.0320969077036076
0.0206814316044399
0.0228924878778435
0.0349044086941476
0.039995792157895
0.0334745090924852
0.0353290004415381
0.0444300852708739
0.0387626680117884
0.023228545390657
0.0240053895094887
0.0387739172860644
0.0359855549584197
0.024758248812106
0.0245314089715348
0.0357363998447427
0.0371856334651666
0.0247764205158809
0.0255298433799195
0.0378643381252419
0.0380493524136211
0.0252061393033649
0.0254493475454967
0.0384528613427346
0.0400757870451912
0.0257826441888416
0.0257904477241825
0.0403095280656831
0.0409332414998257
0.0258384605337852
0.0258233657069994
0.04086375218055
0.0406231009897078
0.0258212332429341
0.0256598524657157
0.0402709359988184
0.0395150665809192
0.025467471667475
0.0251894116843605
0.0391897488944456
0.0385844252729869
0.024905957380158
0.0237740418257662
0.0375411545369995
0.0347201068285539
0.0223598067149138
0.0227073920522121
0.039025813903982
0.043979456787663
0.0230634927039357
0.0234922085353289
0.050627333116558
0.0411897881365749
0.0218396844591271
0.022118305487483
0.045151371087876
0.0443630755078977
0.0218391852661636
0.0207968130748835
0.036726708624795
0.0487817828547906
0.0393400915905809
0.0431142498189731
0.0537892446997541
0.0395156893141884
0.0211016402276317
0.0200982544871279
0.0390731932471647
0.0364303252954148
0.0197921528955748
0.0196484325670616
0.0367483240265833
0.0343383762351893
0.019215476470614
0.0186245335174441
0.032440090182451
0.0317551840672042
0.0192400648916677
0.0190258660605334
0.0294916407957798
0.0171753129404516
0.0174011224763609
0.0168660891284439
0.0157772517385528
0.0158367151384719
0.0156463951882532
0.0160434293363526
0.0309699032548702
0.0282546295806514
0.0158910367134145
0.0157691790220926
0.0257857950396947
0.0153871017853178
0.0151976512425886
0.0151919471597266
0.0154380698567753
0.0233957263006301
0.0255821357263112
0.0157144332638879
0.0156972845371996
0.0255071888785944
0.0234123679580872
0.0159670471032198
0.016455882105601
0.0259274025108411
0.0251553838956759
0.0172711288238555
0.0178680608522154
0.0256115480503315
0.0261989421413501
0.0185438635413522
0.018111364868536
0.0262498533092577
0.0269925087138822
0.0182037248544117
0.0184363083685731
0.0291536980219616
0.0310291026648083
0.0191843335136812
0.0204273404239863
0.0348793746613886
0.0332487648624289
0.0208236826002846
0.020959988773003
0.035452486335208
0.0375531272609163
0.0484515006283022
0.0426673027426492
0.0235212924460495
0.0243900804377348
0.0436389428015765
0.0412226577129418
0.0259721700406515
0.0266320573953335
0.0417064591972432
0.0449853521255337
0.0267279086722624
0.0267396283724042
0.0462881527889272
0.0466988999756671
0.026870550154974
0.0273777051564527
0.0487456064302663
0.0493050206628495
0.0271597452356823
0.0274745097171666
0.0506401424268562
0.051191227928011
0.027616745031269
0.0280092053843432
0.0527502524068287
0.0545366951117212
0.0281907866707018
0.0282380388306223
0.0552496399598222
0.055354234706309
0.0280870193443647
0.0283709146400521
0.0558978487073175
0.0570350378170137
0.0283713436264152
0.0282829115526311
0.0570810334136234
0.0570160057864326
0.0283414844080846
0.0283477747083391
0.0567015209214901
0.0562778955995617
0.028471029437071
0.0281871098463196
0.0554822073218926
0.0553117863387908
0.0282077402232783
0.0280635724633207
0.0542374378586048
0.0532811083032831
0.0280091673103589
0.0276482697589577
0.0518295666181102
0.0512968037887371
0.0274722168380508
0.0271010559188016
0.0499669089591106
0.0491086121847646
0.0269053723405945
0.0262895026592227
0.0473281309873463
0.0471903039171185
0.0260931850521099
0.0259771516032951
0.0417881053366762
0.0432806371129241
0.02659374390236
0.0267557915162415
0.043643648613138
0.0442588362873903
0.0271018672448873
0.0271934945566411
0.0442696828483601
0.0450858775471271
0.0275590475670797
0.0275816875436245
0.0455800651803789
0.0462482063927942
0.0277755139911746
0.0277194498336371
0.0462768165548544
0.0467541981514132
0.0279569582801311
0.0278542635375869
0.0469092766049825
0.047162654259548
0.0278711290558366
0.0278383646320577
0.0471529499093793
0.0470920092886187
0.0278765675744529
0.0278416911329307
0.0463592422791495
0.0460496657616908
0.0276507332080056
0.0278104498798699
0.0460362012576776
0.0455245343900125
0.0277061290333249
0.0274921653452919
0.0440526686628608
0.043185485625432
0.0271212080350311
0.0270585941639988
0.0430085867171852
0.0423875235082747
0.0267616202489921
0.0270871304971798
0.0422941857278708
0.0409179593922422
0.0265842339199295
0.0268260928152964
0.0228652640587788
0.0204828829479032
0.0179136562922711
0.017370617060472
0.0166260969764905
0.0164762067978115
0.0159052206639417
0.0157882539823574
0.015754745383703
0.0154965216551318
0.0154184885300684
0.0158621289224503
0.0279425661546227
0.0281004516155134
0.0159500218228508
0.0161467822937955
0.0309566146350022
0.0286632597123686
0.0167893227412002
0.0173485675414174
0.0284470122016683
0.0268333070953575
0.0171998100353318
0.0182356738045317
0.027849427958152
0.0285534299321247
0.0189507312160144
0.0184206681848033
0.0283361402119542
0.0305934732270445
0.0186093318011441
0.0186831746107652
0.0313474371768109
0.0338768380850119
0.0195247456246304
0.021070932398909
0.0392681263656882
0.0374827333526636
0.0214943127356773
0.0246656427347941
0.0403054212716582
0.0534845579825807
0.0468966759198363
0.0496493397937339
0.0248360910314057
0.0264237851357077
0.0481643721036085
0.0523025118963555
0.0271210234159971
0.0281839127911677
0.0556906838547849
0.0583923657621007
0.0282774617751681
0.0282626255145404
0.0620104124519124
0.0630293221819703
0.0275905534001091
0.028238474848497
0.0656798471490695
0.066779410180561
0.0283231073230815
0.0288052261675902
0.0692554549449032
0.0707433403220983
0.0292597722492764
0.029779327445443
0.0729005093953407
0.0744200673078692
0.0300744147079357
0.030274645702639
0.0747786705164813
0.0750285693296724
0.0303509485896854
0.0308193770905507
0.0760515792280199
0.077901514385086
0.0307859964862273
0.0307010389767014
0.0777557059156359
0.0775111701831112
0.0307971741468082
0.0307020018454477
0.0772582532448296
0.0765418821915278
0.0307673755848991
0.0303580900218537
0.0755591146726834
0.0754271752218163
0.0300951271695247
0.0297834662820794
0.0746067554930572
0.0733279104127906
0.029517383827009
0.0290749422270864
0.0711256301777748
0.0690056826954587
0.0286265869016916
0.0280807584996673
0.0664981749383062
0.065815274288176
0.0277174796060646
0.0270059323739799
0.0645352589197138
0.0568786340897914
0.0259457243003022
0.0256922058309353
0.0509707508142516
0.0454894015315291
0.0242390676062299
0.0247455550350223
0.0548918372659891
0.0675577839711691
0.0252613998475243
0.0258290689627803
0.0867889164189227
0.0591931665323154
0.0239146885640831
0.0243368398627068
0.0713248665063071
0.0490394691786388
0.0222663699331112
0.0225031838265178
0.0548262308063559
0.0520981771549815
0.0220967309965483
0.0223382877023059
0.0617749574391359
0.0483947743641901
0.0598745354141617
0.0429824974380621
0.0233064623320714
0.0218669628738011
0.0419948910490385
0.0433370561599434
0.0215355443909298
0.0203269856821551
0.0412116076399458
0.0373050263348335
0.0193456304482662
0.0187374868994829
0.0350420390196898
0.0342976172739754
0.0193164029288488
0.0197841528611219
0.0350898691180886
0.0321350834938968
0.0197579190187121
0.0191690930704317
0.0310838213955992
0.02898885315052
0.0176045914925987
0.0176597658035512
0.0306991545341254
0.0314618984960461
0.0172929864076212
0.0174451916001224
0.0342376728511874
0.0342409837923755
0.0162299965473482
0.0158439576428704
0.0289012692177814
0.0268219106250359
0.0157262612618134
0.0157269420111923
0.0266774728357696
0.02497307476917
0.0155782865862556
0.0152760697075464
0.0153773395950605
0.0155503333487615
0.0160449168703094
0.0305894594882355
0.0338459775520808
0.0163103656374236
0.0175233213642718
0.0342725481214701
0.0317820864784701
0.0174971333623037
0.0174373241605286
0.0315694448996544
0.0298415998666461
0.0173228870835061
0.0185186027975536
0.0329241412440439
0.0303371978476078
0.0183897025464173
0.0191053635132922
0.0312271680187005
0.0341820956280007
0.0192159879504347
0.0187781431085864
0.0330337454990148
0.0337801520226593
0.0189026589233168
0.0198504540514759
0.0371129086574755
0.0442192553501572
0.02141884407657
0.0217950964335421
0.0424337659177715
0.0475212463861464
0.0675403667046796
0.057447318885589
0.025410723395654
0.0256044983494491
0.0661077922314878
0.06993684552603
0.0273250972208139
0.0280486502382843
0.0887303142374841
0.096890297871067
0.0289172917062234
0.0324267642522377
0.135629971346279
0.13649108024091
0.0326170142319182
0.0339529925666518
0.142821729701976
0.156370397937609
0.038108932250708
0.0444876272412458
0.15608898975584
0.17938639002957
0.0495184588497027
0.0505776280406705
0.187598869684946
0.191774838482458
0.0503033562222162
0.0494535341342451
0.192266498126569
0.193049664679987
0.0495897260385332
0.0492179626461728
0.191444184927224
0.190533525152054
0.0496975459167946
0.0492927658498948
0.187889656210706
0.187356998130078
0.0497426344482763
0.0494163278526008
0.18468282059097
0.185220511631424
0.0499047482863712
0.0496352448391454
0.18383727342268
0.185830654065554
0.0502417138501745
0.0503115988705256
0.186083812767692
0.188824944503193
0.0508920036790453
0.0506298622012041
0.192897380707017
0.194317870146633
0.0506598849341202
0.0503862987771521
0.192400157358272
0.191562936394738
0.0505584597859555
0.0508835539861691
0.191405582308903
0.190463567588304
0.0504677202492031
0.0506812041229448
0.192290844710945
0.190667988234767
0.0502680982411845
0.0508287931812889
0.191815822085148
0.190119148801539
0.0503144761428625
0.0504553487732516
0.190814710190395
0.189767407476521
0.049916472109836
0.0502319334267946
0.192025785223225
0.19232340908188
0.0497664850060576
0.0501510629564271
0.195654720660927
0.197041149749778
0.0496551458906346
0.0503018859504011
0.199967081503237
0.200275054036604
0.0504441338221448
0.0515070500819188
0.200115623525347
0.195442426932536
0.0517361387906156
0.0504602234760737
0.186123124940474
0.160852273307706
0.0452439575266802
0.0393283282467303
0.162098874533185
0.152352379476743
0.0354881191130171
0.0323842376953746
0.149916687382746
0.101687900445611
0.0274155110932998
0.0267484518402819
0.0842958226305118
0.073264248819129
0.0264251795468888
0.0260121860367387
0.0635920841733282
0.0774845252112556
0.0275456827412986
0.0288597507096
0.0940100329844616
0.117303573191037
0.0300659710684621
0.0331204019447779
0.117347234791253
0.121581196324445
0.0371836297163307
0.0438510019444964
0.137976909817591
0.147680005964551
0.0495188950358083
0.050675788520556
0.153251982910747
0.157604869258914
0.051005843109778
0.0495491821636588
0.159850426447837
0.162182425659927
0.049468137336342
0.0483644854552645
0.160806479544875
0.161626656934153
0.0490147562870574
0.0483505463891337
0.159133705810521
0.160285322225788
0.048958577972976
0.0484372514431101
0.158267822474301
0.160026434707481
0.049084611962742
0.0488137572000864
0.159421259941826
0.161284605605895
0.0494344561116805
0.0487807118521415
0.160732300933932
0.162074306977791
0.0492609184564242
0.0490082897645676
0.160659278213356
0.161559150856521
0.049427500437726
0.0491035486412724
0.161805123531479
0.162104530198004
0.0489691233504686
0.0492370313692249
0.163553803880984
0.162731870154816
0.0491561298488073
0.0494236939914081
0.159119810293724
0.157087233490091
0.0488218476643669
0.0488096256671664
0.156610969320802
0.154709456081962
0.0481498959980538
0.048556927957683
0.155963263815097
0.154608317589009
0.0479577063242873
0.0484699116452987
0.156945621236473
0.156019022623783
0.0478889406961237
0.0485606977099853
0.157827308371133
0.156758627726839
0.0479446800542324
0.0486858859400178
0.156968520326878
0.154066992559218
0.0485090665621346
0.0497987028679207
0.151859328947721
0.147793073599766
0.0495836042433777
0.0485342923463881
0.142856463056951
0.133895170161599
0.0431199281667253
0.0358488070262027
0.119085157081156
0.111048442234115
0.0414193645814131
0.045758627443198
0.116546645406628
0.119757655345172
0.046599489330635
0.0474144704160261
0.12282880909047
0.124136749074472
0.0463465004079435
0.0471715864162453
0.126972379428252
0.126942441849728
0.0462035823660853
0.0469451164724224
0.129352653902513
0.128141069285033
0.0459144791519676
0.0466743680065307
0.130043071255242
0.127990045852087
0.0459274451845471
0.04666279069956
0.129740016167386
0.128689758685019
0.0460989821836481
0.046799684173349
0.130290016340185
0.130960950494068
0.0467523665973454
0.0473633461724075
0.132258905239976
0.135390763856747
0.0470873628956495
0.0472147421411155
0.135881295892018
0.134813294190583
0.0469557239553045
0.0470395948806075
0.134740399455199
0.13445004366089
0.0473528758239451
0.0469607970106008
0.13379084969305
0.134826017091185
0.047249481358088
0.0467082457764024
0.133740271947792
0.133856328356052
0.0474697098203008
0.0467281316548194
0.132154500090597
0.13262924836888
0.0471555095192452
0.0463784673611486
0.130558932069375
0.132373834946772
0.0471659219608123
0.0463536756123671
0.130253843645109
0.132184944806794
0.0474179275666067
0.046621570629107
0.129837353864927
0.131136119724825
0.0479651627631405
0.0472708303645612
0.128525198796261
0.127079519521193
0.0484770727000563
0.0475608176543996
0.123806931564503
0.120189269672458
0.0467114253894179
0.0421135160290419
0.114358944079336
0.103580922317433
0.0379671909851479
0.0328093639183953
0.095040888623218
0.0940296750959112
0.0306268263573721
0.0287934096669448
0.0780411492232999
0.0791272134832293
0.0294084686050784
0.0302358213622858
0.0828837726243551
0.0862313499846554
0.0305660386833494
0.039301411577495
0.108513807208233
0.112121944092041
0.0389816206357539
0.0386523699163785
0.11292665234624
0.113123834239212
0.0385789850544444
0.0386702404900046
0.113220402145532
0.114433562959835
0.0389559713458233
0.03880352090659
0.115539733219997
0.115559790978332
0.0388919137354164
0.0387306882270343
0.116103643036984
0.11669147450247
0.0388559411212841
0.0389679538368244
0.113426233512953
0.111655376709655
0.0385200239219053
0.0383939371134141
0.111176110259405
0.111328170637556
0.0383191457682459
0.0384527291282463
0.110465244060122
0.108374734771638
0.0385106336677432
0.0387080173729688
0.105098794147933
0.10065390683324
0.0372232647956024
0.0318362896136157
0.0938945479826681
0.0896906788577518
0.0292836141761282
0.0316583456909777
0.111308598634944
0.108089348616885
0.0307097828227768
0.030276348949367
0.106566289051204
0.0805058761618786
0.0284483631582148
0.0275811667757778
0.0665769641634991
0.0696749011663997
0.0282910623127054
0.0292331528813958
0.0852753695940608
0.0879429347916778
0.0291710416228624
0.0285227748483831
0.0728408080754932
0.0742932760598022
0.0281506660790561
0.029002639830181
0.0782907274440524
0.0804253566475772
0.0298062041070342
0.0302608097663189
0.083719754174815
0.0855227378694889
0.0305065473816992
0.0312658906322859
0.0865239081499234
0.0867869398156057
0.0318046363756015
0.0321829391004182
0.0864402430482153
0.0864395356484436
0.0324407005166564
0.0329891429506896
0.0876114988678441
0.0896437232412655
0.0329844143063278
0.032903139355308
0.0894002595941137
0.0890784195775383
0.033005426536936
0.0328641043977099
0.0888428003464558
0.0883302013725638
0.032831397332864
0.0323301307046257
0.087641849897323
0.0881392793896729
0.0318381059242101
0.0312615137641372
0.0884652110801133
0.0885737267760706
0.0306956773063362
0.0300864444004604
0.0268228397284964
0.0263756033309614
0.0258533747362475
0.0252399999001366
0.0233812977789688
0.0232143263537986
0.022873521104014
0.0225594105396285
0.0201155860195373