/*--------------------------------*- C++ -*----------------------------------*\
| =========                 |                                                 |
| \\      /  F ield         | OpenFOAM: The Open Source CFD Toolbox           |
|  \\    /   O peration     | Version:  2312                                  |
|   \\  /    A nd           | Website:  www.openfoam.com                      |
|    \\/     M anipulation  |                                                 |
\*---------------------------------------------------------------------------*/
FoamFile
{
    version     2.0;
    format      ascii;
    arch        "LSB;label=32;scalar=64";
    class       volScalarField;
    location    "1100";
    object      nut;
}
// * * * * * * * * * * * * * * * * * * * * * * * * * * * * * * * * * * * * * //

dimensions      [0 2 -1 0 0 0 0];

internalField   nonuniform List<scalar> 
162506
(
0.00149780804259396
0.00155217258411563
0.000102987497717279
7.88007143074506e-05
3.92610669079151e-05
9.526428780944e-05
0.000460203531978467
0.00053088063571367
9.31984985841434e-05
6.34523273268947e-05
6.95894983893662e-05
0.000885927738445324
0.000936964903532507
0.00130190509899393
0.00293191194104501
0.00332143178745963
8.9529003061602e-05
9.28914428946043e-05
0.0013294205120426
0.000677624264670978
0.000910843160097923
7.98740975144696e-05
8.51388149417406e-05
3.87255499734641e-05
4.36014124956037e-05
6.12589379945241e-05
5.67982899123769e-05
0.00570469435450667
0.000106154082978775
9.82013052076885e-05
0.00813554268393783
0.00772376851938594
0.00496198194211416
0.0104499673082654
0.0150001155772682
0.0149413129267072
0.000100603887335885
0.000109813121132938
0.0106571228494378
0.00846332300833212
0.000113129414657724
0.0001107132238771
0.00510468176702817
0.00458153872249169
0.000110746344510299
0.000110631207575002
0.00324841787374596
0.000815517132275734
8.70931833255833e-05
4.53256235062331e-05
8.51772977745056e-05
9.1339427398718e-05
5.00791642855747e-05
9.6493196288861e-05
0.00116090520175426
0.0012819216739622
0.000101217732579377
9.79042164274423e-05
0.000863638872910703
0.00214225188901937
8.25006580539957e-05
8.17069558967376e-05
0.000955017391910665
0.000819825528083607
0.0022842386006102
8.06791705741971e-05
9.25357839921302e-05
0.000109623892923103
9.78207088043575e-05
0.00435002612751446
0.00283503732939775
0.00418197807885594
0.00593931572152754
0.00352957654699864
0.00247408189572385
0.00192450713652146
0.00167932467180321
0.00333974965411572
0.00298427025082486
0.000102682481052384
0.00011368470931038
0.00530292181781188
0.00507040146383921
0.00827182022495722
0.000102931409898562
0.000112842886367368
9.99222644092556e-05
9.02205881157787e-05
0.010104768525816
0.00566200237121172
0.0131019104866122
0.0096211467749074
0.0145292049212477
0.0125336043114889
0.00871281926113729
0.011666963355064
0.015000310417432
0.0150014781585307
0.0150016941687957
0.015000440564628
0.0150003380482036
0.0103851672559366
0.010942143190604
0.000109774141963362
0.000100687860663671
0.0149430638334835
0.00731827652289275
9.82866202253746e-05
0.000107008803492092
0.00569895161500541
0.00570776821415739
0.00011070579493149
0.000113664517179369
0.00931352928677363
0.00803724114228343
0.000111183963479881
0.000110076130039955
0.00787915318036209
0.00485627263141726
0.000110958340315235
0.000110719147782191
0.00380529862444056
0.00334334391123757
0.000115615460045427
0.000112463923254698
0.0023038192234149
0.00112577200077704
9.69968450562563e-05
5.41724909344019e-05
9.42753631911458e-05
8.76788763230117e-05
4.83545070028626e-05
7.64192356960633e-05
0.0007441385789629
0.000702646134097686
0.000112256009994283
9.67030612757613e-05
0.0013139450298618
0.00219432930004535
9.34310382184938e-05
8.7598987775474e-05
0.0027191454648571
0.00373577429386007
0.000107805487060934
0.000106073388835602
0.00351571128422369
0.00824552032600223
0.00010640547605233
9.81113508416195e-05
0.00480106712002511
0.00691905564751789
0.000104860866442742
0.000102388902603122
0.00802706224168258
0.00709632214441299
0.0110148812434711
8.65933330179619e-05
9.60092313783665e-05
0.000105912806944482
9.42711087763079e-05
0.0149278963965309
0.0081820085717928
0.01500111505049
0.0150007005046887
0.0150003448478336
0.0150008107505267
0.0150010931973699
0.0150004691435777
0.0134249555403849
0.0142000365139202
0.00868988038743909
0.010455206405752
0.00703809326220028
0.00489593712151964
0.00126311161238465
0.00278929077497985
0.00312910425884658
9.01386560842335e-05
9.62960525609446e-05
0.00143553103464983
0.00168887385058946
0.000103016948104368
0.000110804891781108
0.00318644012580548
0.0053222694655704
0.000110970545867649
0.000111899086937357
0.00415861376487498
0.00515702458532085
0.000110580537954317
0.000108170060298056
0.00276192339436193
0.00275046528015894
0.000105269315641087
0.000108592578487697
0.00251866783918568
0.00135809358062006
8.98301740144275e-05
9.46415702403079e-05
0.00138308013121411
0.000725758813807543
8.71390664059396e-05
8.64015579906956e-05
0.000720498101713005
0.000611337747437937
8.03571481596036e-05
7.61394131554178e-05
0.000697429816916531
0.000640425325082785
7.77323146980835e-05
7.31203883556655e-05
0.000815442814322003
0.000588105573046314
5.39903270852917e-05
5.21254419577224e-05
0.00051012873209586
0.000618530295957585
6.46507915627205e-05
5.75193769530694e-05
3.32092901741705e-05
6.77641960876684e-05
0.000603942369114296
0.000540453352826478
7.2325462325577e-05
7.24107089424246e-05
0.000492192783528997
0.000480926641730611
6.02957038423267e-05
3.58891217479452e-05
6.82139455155492e-05
7.44080092985612e-05
0.000384323672325987
7.05381371773165e-05
3.3706137304705e-05
3.50644534554874e-05
7.43920876851592e-05
0.000503883754750662
8.75682536542386e-05
8.46224524738742e-05
0.000561194127238202
0.000968654419177951
8.65180797058779e-05
8.6299762210738e-05
0.00153009352445128
0.00208025117345275
0.000110605910290183
0.000109300389853495
0.00293722960209246
0.00432329442534003
0.000111642666089581
0.000107225481809941
0.00702274306935074
0.00436783024491722
9.51556897412728e-05
9.55658318163543e-05
0.00442217530640171
0.00496043743365506
9.77706216324453e-05
0.000115482344497959
0.00894251356566376
0.0113981293318564
0.000114554885569672
0.000113471365473957
0.0112404496687599
0.00701977602456365
0.000106435186481021
9.44093894368162e-05
0.0149281213956275
0.0147861829554863
0.0132766131335228
0.00587762072193374
0.0116687991126485
0.00941389936398455
0.0122219892715913
9.55658199826955e-05
8.70039113423725e-05
9.0143869576477e-05
0.0146912761890313
0.00536397171976578
9.95847718626999e-05
0.000103669212237033
0.00671394536085536
0.00564601096556899
0.00011332173715222
0.000102799028372387
0.00279482253592959
0.00295209628292071
0.00412959868666911
9.71565405034346e-05
0.000110734297530169
0.000113005503359847
0.000102844379226763
0.00766072343202429
0.00509396419875209
9.10199511583794e-05
0.000831312865171173
0.00235098567369433
8.14041122658257e-05
7.01138508272935e-05
0.000880435807252317
0.00101908221321319
6.37797209152837e-05
9.47446281724712e-05
0.000531950263620233
0.000455060009227549
7.79976617124167e-05
4.00561507722621e-05
9.87571942610843e-05
5.99531053087534e-05
6.40394428051089e-05
0.000927462390195313
0.000680688368309129
8.46168114319319e-05
8.28990181034601e-05
4.37521842314179e-05
3.95216511452599e-05
8.3753960012443e-05
4.57510948037614e-05
8.63679026177743e-05
0.000777739282291265
0.000875652714153705
9.74998098140869e-05
0.000103775985999846
0.00128209328854139
0.00117355623127143
9.25379460865851e-05
5.0368372880398e-05
9.53881900929967e-05
9.68384060265298e-05
5.38095000732991e-05
9.33022140727234e-05
0.00115157975220232
0.00236315834968109
0.000113801489526856
0.000106890730591068
0.00267110670274136
0.00135437771074886
9.44181569493148e-05
9.52164536740676e-05
0.00128825881604581
0.00135045833068445
9.68190029976113e-05
6.47598921198869e-05
0.000713205255440358
0.000422708374007722
5.19358639342005e-05
4.29925122308829e-05
0.000289022230386211
0.000373977203577759
4.75765935037142e-05
4.21622568652024e-05
0.000287927223125895
0.000385594787368838
4.75415799173005e-05
5.3696869031163e-05
0.00051385397266415
0.000622854511846545
6.21258944515626e-05
3.35141560134505e-05
5.22804786577766e-05
5.30037023626849e-05
3.82927401507122e-05
6.54335957029107e-05
0.000391835086070675
0.000488393282226649
6.65925409551578e-05
6.29034616377585e-05
0.000864398427487521
0.000419068247264498
5.64665796063591e-05
5.0852109822215e-05
0.000383957150363932
0.000313632325566843
5.8720775255226e-05
7.29418121850899e-05
0.00042820794223703
0.000826254554261902
8.04431121822886e-05
0.000110108094853609
0.000836379989875846
0.00131614813214925
8.93508784024987e-05
9.5499328021934e-05
0.00156117550010865
0.00262208836952085
0.000113728933379655
9.82788107259565e-05
0.00289706995153981
0.00413469649738082
9.60073282089483e-05
9.65808921941237e-05
0.00413526995675767
0.00489791472238725
0.000115132238097126
0.000114695045714687
0.00793502751332855
0.0079205644943604
0.000115012711638356
0.000114998665986688
0.00894415496166303
0.00493980442541562
9.64762395608642e-05
0.000100261302118847
0.00754404584764559
0.0031992531263122
0.00774674273694474
0.00777246455140332
0.0147373989485788
0.0119481554260799
0.0105104640068427
0.00879878290266869
0.0115705687192321
0.013423094867447
0.011091516157677
0.0047662024912348
9.85272210205208e-05
0.000105249011481317
0.00819970147528404
0.00341744927296042
0.000105877834568754
8.30663436351706e-05
0.00205765016587426
0.00290597792434594
8.69782541323066e-05
9.27773011758701e-05
0.0025626361036527
0.00136895135544404
9.76353336192638e-05
0.00010987233148821
0.000730183317171766
0.000824865031131579
8.52835479897145e-05
4.67749136447187e-05
7.7149027612156e-05
8.44148437386462e-05
3.39703592526986e-05
7.08182097444006e-05
0.000540833994314148
0.000635682158804302
8.54530944022387e-05
8.61134330136079e-05
0.000724893146347949
0.000668742831502454
7.98671885890458e-05
7.57798670862088e-05
0.000586221733484349
0.000545923855497291
7.63960936282222e-05
6.32761874189746e-05
0.000374529947565312
6.72060652795288e-05
3.27132033504091e-05
3.27019428685865e-05
5.57624970488309e-05
0.000389176825633347
6.15270311594837e-05
6.38133068968468e-05
0.000322565306697884
0.000411116805832944
5.45925245470284e-05
5.25675759470974e-05
2.81021569762255e-05
5.04932244986551e-05
0.00042441319723722
0.000489284437366159
5.7259597955484e-05
5.31339826597588e-05
0.000409132057145971
0.000283413031674451
4.34196610572379e-05
4.00529154123818e-05
0.000259992781459512
0.000246005066463643
3.81439123868723e-05
3.9216492157782e-05
0.00025019115353585
0.000184661499234316
3.64139918430081e-05
3.55985307218162e-05
0.000214209656351882
0.000177704459860861
2.96775161819416e-05
3.7350785588629e-05
0.000190540896833642
0.000259561400221561
3.74519539619816e-05
4.28396966000303e-05
0.000295376876658776
0.000342665016263232
3.77697532647606e-05
4.47087302113313e-05
0.000325380342613762
0.000277057046540191
4.32876872598365e-05
5.52888362828743e-05
4.28071562652528e-05
7.00554520741062e-05
0.000312029523182442
0.000380631243663188
7.36450857231407e-05
6.7451379233852e-05
0.000448599876767466
0.000507098941889459
6.27922807512042e-05
5.64070221283144e-05
0.000444987775053244
0.000432523187538839
7.55679189806467e-05
7.25227774520916e-05
0.000491425944327647
0.00049427874827861
0.000610866645282279
0.000492788848633849
0.00030425844519259
0.000435765647882775
0.000835300937181027
8.29699885579169e-05
6.56665688658124e-05
0.000577882226122006
0.00036406191653109
4.6431587676081e-05
5.11102085300595e-05
0.000461488928137305
0.000754270629477837
6.36752207144962e-05
6.79963700805027e-05
0.000474165248478824
0.000390476449737528
6.02706539381877e-05
5.4410197491965e-05
0.000333858836450867
0.000336774920008996
5.50312212166537e-05
5.30468797214131e-05
0.000499857619562038
0.000950381678502938
7.4513986283139e-05
0.00047775183636494
0.000714302407776552
7.37853352314905e-05
6.3056399951536e-05
0.000583593723392556
0.000505528945326117
6.06638587143607e-05
8.15273475635362e-05
0.00038073811381475
0.000461497341406461
9.74588938744505e-05
0.000107557054577063
0.00065135875841402
0.000663875518049124
9.36394575556843e-05
9.22610632632892e-05
0.00097378046019632
0.00178034613259676
9.22514663350587e-05
9.66566380859396e-05
0.00173029115052334
0.00304924651472093
9.71814309221166e-05
0.000114943420044836
0.00275222787972708
0.00283646219819256
0.000115305196889304
0.000115424123286053
0.0051976713998948
0.00411906967001632
9.6923565789411e-05
9.57626985998864e-05
0.00440125625120584
0.00435109246205614
9.59436021793573e-05
0.00010723463505191
0.00760977816625418
0.00412424913690733
0.000107786323686981
0.000112851734701416
0.0032070172765957
0.00234770422812008
0.000110597040531855
8.33177829093487e-05
0.00187572022959317
0.000897140022853884
9.17611239566368e-05
8.11763331497972e-05
0.000521346748046295
0.000299547306298595
5.48785497833605e-05
5.80949441442461e-05
0.000791647979215528
0.000560342400298352
4.65138301470348e-05
5.68079575833737e-05
0.000797514180789763
0.000585190573067389
5.46503646672604e-05
5.32597743992406e-05
0.000417875777552732
0.00042335424559715
5.47492510116154e-05
5.40213882660333e-05
0.000430785116635775
0.000389190458671397
4.96171755230807e-05
4.82911657839979e-05
2.61109664644434e-05
4.10220902160864e-05
0.000285193078005207
0.000243916654716747
4.25336723984719e-05
4.55230626600615e-05
0.000224955523875757
0.000334978656454288
3.98426300129583e-05
2.4670978579664e-05
4.25952893534581e-05
4.49130488837161e-05
2.66079730062978e-05
4.53865052701904e-05
0.000428926180398213
0.000443359546859364
5.32063386174537e-05
4.36882750971045e-05
0.000306424333732411
0.000217398412803444
3.63326941860277e-05
3.85346468155037e-05
0.000182580045915728
0.000174530959784734
3.72478964649246e-05
3.26561973370912e-05
0.000129735327420952
0.000127906753542931
3.19807580415529e-05
3.07428414957847e-05
0.000153114854092639
0.000147381529905174
3.34268858797049e-05
2.62107545298872e-05
0.000126261719567015
0.00014066532621877
2.41521790586299e-05
2.97921779710068e-05
0.000168727729359823
0.000213550357231628
3.02012871905637e-05
3.56692163912246e-05
0.000242885718382926
0.000263724059939305
4.08081734362794e-05
3.35298312271537e-05
0.000246833850854229
0.000212269441109368
3.78711091546489e-05
3.89874470184765e-05
0.000204279845969639
0.000265604940628179
4.76804102895582e-05
5.93951938622887e-05
4.76826053606704e-05
7.56696759330259e-05
0.000303558214726429
0.000370166804290103
7.98061880245087e-05
7.31497078358201e-05
0.000430537225714826
0.000575720942314379
7.03245666604891e-05
8.1130070599558e-05
0.000556408107402455
0.000438989544388572
8.01517229972097e-05
0.000373492371115691
0.000294586644873433
0.000184178074764254
0.000124816109830928
0.000137448280297975
0.000211775010230382
0.000223288289100084
0.000156902786729806
0.000281610984481578
0.000472920033412666
0.000651899464605221
0.000108932669890275
0.000110078849097191
0.00096295364542097
0.00158503041284668
0.000113294202508914
0.000113811513106096
0.00159290099023891
0.00170011463499046
9.76834912161915e-05
9.76115082931569e-05
0.00316909144831552
0.00304248975784974
9.69344094058417e-05
0.00011520841972616
0.0030406276946528
0.00171418226630363
0.000111098533124517
0.000112615174640526
0.00129407293438142
0.000936112817930375
9.51005821618677e-05
8.2675875447203e-05
0.000963949650206164
0.000412074944724683
7.36022037568191e-05
7.28043099037422e-05
0.000425971051562652
0.000409513602809962
4.15975195084206e-05
4.91292699088328e-05
0.000464115439134404
0.000444864787425302
4.79977178204597e-05
5.23015646185878e-05
0.000328648807501476
0.000287897259538157
3.93167441824558e-05
2.58803852613397e-05
4.45238132548588e-05
4.6441016994758e-05
2.96983256883909e-05
4.12356181328733e-05
0.000233942084262478
0.000200702998019913
3.53631731988844e-05
3.02288384325741e-05
0.000230076429067556
0.000189807970943118
2.84315658770627e-05
2.34450721198347e-05
0.000175400039630334
0.000148615005036134
2.2807118830261e-05
1.74710976809068e-05
0.000125710004454693
0.00011151170729771
2.22538010786362e-05
1.82638244299623e-05
0.000107228852074065
0.000108824814671398
2.23888598635968e-05
2.32817009239457e-05
0.000107680051856389
0.000106136243689303
2.29507186546237e-05
2.24697223901407e-05
0.00010615975070861
0.000107941285898313
1.82051910895332e-05
2.24071447516831e-05
0.000117342724095745
0.000135188511501317
1.78636705319786e-05
2.32361163352642e-05
0.000154994387852861
0.000188973363246847
2.53590052501051e-05
3.08876452232827e-05
0.000212719799355821
0.000181813956097534
3.07761684551856e-05
3.29915853978699e-05
0.000175166152205029
0.000160663328317427
3.89365198838956e-05
4.29985273305164e-05
0.000196493604322246
0.000204822183631329
4.97676449895441e-05
6.1269081437792e-05
0.000293178443102259
0.000348455016359504
8.32304103645873e-05
5.38955345705726e-05
6.98204463473064e-05
8.08948135083482e-05
5.87386727487744e-05
9.3750885282466e-05
0.000448580897520856
0.000551085445733511
9.58234349658144e-05
8.75343121218199e-05
0.000419212452288445
0.000454621303028217
8.0887406170198e-05
7.61965251271184e-05
0.000495811675625304
0.00057039702295941
7.95995266595421e-05
7.68492512485779e-05
0.000571061837545154
0.000522092764246654
7.24876951759127e-05
0.000507749147570405
0.00036087959557258
0.000410901745462053
0.000383233651917828
0.000434794643029381
0.000508656665009822
0.000626747261238248
0.000111654894127164
9.8001378678894e-05
0.000761133745152663
0.00105719763869399
9.56977436844845e-05
0.000816245882955865
0.000767048721656948
0.000720973481660752
0.000944786833213533
0.000110158967227861
9.55846192117924e-05
0.000977568949494036
0.000973418831016221
9.27885114588851e-05
8.84832597858818e-05
0.000949394813336541
0.000595185288025843
7.66706625079787e-05
6.59945575142882e-05
0.000713795138860547
0.000640111575662204
5.96372753488409e-05
5.96001164520286e-05
0.000727553216154928
0.000593656751103191
6.46418229374726e-05
6.53008734968537e-05
0.000429619933682831
0.00034534362555926
6.1438833093092e-05
5.35259257784428e-05
0.000332437992388559
0.000304434761964551
5.12194927684465e-05
5.02378289254633e-05
0.00025584811027583
0.000220541521649332
5.84247326994621e-05
4.91076583177804e-05
2.98508007185099e-05
4.30388782257006e-05
0.000216327342999349
0.000181996362289373
3.62432139613855e-05
2.86926294186996e-05
0.000197052702929609
0.000190509783844149
2.44399403354729e-05
2.08179551721738e-05
0.000129844474205145
0.000145741909879479
1.61720155352892e-05
1.79072525933083e-05
0.000132827408558033
9.70328304787807e-05
1.99269826349424e-05
1.60221084066882e-05
9.71621887343545e-05
9.48649328590991e-05
1.92287853249233e-05
1.6713423301414e-05
8.57101914596091e-05
8.06751727104439e-05
1.90569685257922e-05
1.69430587264816e-05
8.35335456794999e-05
8.96823828321972e-05
2.76380039875992e-05
2.08044910900881e-05
9.73550984766024e-05
8.17885592699361e-05
2.49372019785175e-05
2.61490438612386e-05
8.68773337884938e-05
9.38937462739031e-05
2.9884102135182e-05
2.78232544127763e-05
8.95371135732274e-05
8.61559576461004e-05
2.0881609150115e-05
2.47776260840227e-05
8.12917909474475e-05
9.26594243074233e-05
2.03109853524717e-05
2.29871795330711e-05
8.94562780809415e-05
8.32182158457856e-05
1.655449640876e-05
1.73193191810467e-05
8.31782985448603e-05
8.76197832618968e-05
1.70485241358898e-05
2.06558919168331e-05
0.000102340672044798
0.000109484179958066
1.66218014707325e-05
2.03600703632413e-05
0.00010709501448198
0.000146008671769021
1.86397968951422e-05
1.78422727382493e-05
0.000182510300707406
0.000153829198284631
1.86593823157515e-05
2.08103346948845e-05
9.62570088156881e-05
0.000102152247547768
1.57618380534076e-05
2.25093614274891e-05
0.000104159042632147
8.96958492484857e-05
1.81150429586406e-05
1.78658359617975e-05
8.17404878304294e-05
7.96182305385345e-05
1.67240985392829e-05
1.96987368212495e-05
9.03120401655143e-05
9.61444102719075e-05
2.08002039230996e-05
2.48964409399786e-05
8.49191006806432e-05
7.92842711457493e-05
1.95842472237078e-05
2.51931136050686e-05
9.50903420720587e-05
9.81853176629401e-05
2.60263887825405e-05
2.46588999578961e-05
8.74843605443808e-05
8.88074005958241e-05
2.60258423995004e-05
2.08633934269005e-05
0.000103899314962967
9.41436389184439e-05
2.10939000201071e-05
1.63243749367608e-05
7.90090327453625e-05
7.92574718727524e-05
1.83508047656845e-05
1.77203751631486e-05
8.82584558331771e-05
9.60995885228838e-05
1.99302420704655e-05
1.56457118149565e-05
9.13904662005497e-05
8.89173460706739e-05
1.97579363886499e-05
1.85134788073524e-05
0.000126978634033044
0.000160889152159713
9.16335706895128e-05
7.98896960142557e-05
6.10257685197407e-05
5.9439553568378e-05
5.97234834252471e-05
6.7423615028024e-05
8.72176477096294e-05
0.000126596821922302
0.000248375587364411
0.000334410800896076
0.000499120287080405
0.000653436372382721
9.51540525426001e-05
9.20693214586935e-05
0.000669078370146655
0.000555547785107996
0.000100833273985745
8.19144112938416e-05
0.000493488054607769
0.000429987967790699
7.27340766868615e-05
7.00798605860253e-05
0.000460744210071753
0.000472334385918014
5.75434682204065e-05
5.61390015771201e-05
0.000519837602325876
0.000410168842780633
6.17413464298674e-05
6.59737164467874e-05
0.000358429018640607
0.000297393702977403
6.49567693136166e-05
5.75391301958214e-05
0.000266797413480172
0.000272735703224172
5.66419389665676e-05
5.2342141963986e-05
0.000212373745796508
0.000197577292288697
4.85515334788665e-05
3.41876441300902e-05
4.49747114435397e-05
3.97998601083687e-05
0.000167990503345889
0.000185858666403844
3.07815116327224e-05
2.28857674206768e-05
0.000154454005901753
0.000166624712659142
1.92104060907508e-05
1.96937714039752e-05
0.000119729741577352
0.000108221564347447
2.18974988891735e-05
2.15568212610015e-05
9.83342334382761e-05
8.38180286118737e-05
2.34869207304264e-05
2.27368638942258e-05
7.526383060098e-05
6.95917547964694e-05
2.25724781253869e-05
2.29095637089603e-05
6.06341107871983e-05
5.42645155980125e-05
2.41921826896789e-05
2.39354360828476e-05
4.9666273213329e-05
4.53334126308539e-05
2.31595079446624e-05
2.09819713520675e-05
4.30462662619407e-05
4.0084257062555e-05
2.29902194961669e-05
2.46089418432988e-05
4.04647287505537e-05
4.02592600272917e-05
2.46036925743715e-05
2.36444034496151e-05
3.98444084489837e-05
4.12133746864572e-05
2.26556316234648e-05
2.33282896057774e-05
4.18970846216985e-05
4.53727790926807e-05
2.2450957565098e-05
2.50400377958683e-05
4.99011050112149e-05
5.55953310040294e-05
2.38620933243212e-05
2.28953106973525e-05
6.16118838930349e-05
6.68550803639577e-05
2.34110767899881e-05
2.40335261469659e-05
7.66633108538039e-05
8.61619132847227e-05
2.3472981279123e-05
2.40437579813866e-05
9.39125433917262e-05
0.000120169982699369
2.33460664254021e-05
2.20886070578107e-05
0.000118149661324696
0.00011683985637714
2.17083365770331e-05
2.24592185295787e-05
0.000149358791008725
0.000142269510396207
2.85130981191701e-05
3.62195739827013e-05
0.000141325666214561
0.000153226021947256
5.12587519084666e-05
4.9075429679847e-05
0.000173701266327969
0.000182664089010197
6.38818749449439e-05
5.32841101679676e-05
0.000223477033304834
0.000251137522680406
6.21389061232521e-05
8.31467283057988e-05
0.000364757243781478
0.000470521406505999
9.54160335101455e-05
9.10657999301825e-05
6.14291539102952e-05
9.86516411517404e-05
0.000618599752239686
0.000757114877343915
9.41152720721973e-05
8.92511597174974e-05
0.000689851974604111
0.000667648060630688
8.33505856121994e-05
8.07627922898351e-05
0.000591200845588139
0.00067862338057677
9.22965389571368e-05
8.08894298098905e-05
0.000732773522841935
0.000958941530830896
8.14227077037612e-05
7.12060747239736e-05
0.000641267800070233
0.000650559711669087
6.57858997287815e-05
8.70952784150484e-05
0.00056093999626376
0.000786612992315327
8.61418517188548e-05
0.000110749512548194
0.00120819116653576
0.00109810752868063
0.000116986732504685
0.000139771840159131
0.000968633316908684
0.000852705176111855
0.000143607377113037
0.000119852021811625
0.000573531645027068
0.000532913143573485
0.000118080305666956
0.000108061446839825
0.000614384587041156
0.000430184847723029
0.00039485013609065
0.000431449849815822
0.000548677244619193
0.000107518263249018
0.000137663884081211
0.00081796072581638
0.000874808734356066
0.000117606515625634
0.000103927713723178
0.000863111328920623
0.000604408313900265
8.4923949313324e-05
7.76131023535307e-05
0.000430953616716564
0.000449161509966109
6.85352927031221e-05
6.11449879563922e-05
0.000429353227815424
0.000477555186900644
6.03382629334972e-05
6.91050084665993e-05
0.000494587341708155
0.000382171377288554
7.59834272699694e-05
7.48987156707772e-05
0.000342735108712673
0.000285177831418336
6.78500884223294e-05
6.8200951833872e-05
0.000317396577530663
0.000225798227825524
5.8685493053456e-05
5.42274314387776e-05
4.3503023566701e-05
6.05007520119759e-05
0.000221303713281575
0.000171958361258272
5.49395194677194e-05
4.79335876007677e-05
0.000186157064667143
0.000182263270357241
4.86232068005596e-05
3.63480715351106e-05
0.000100620390048674
0.000113279306241524
4.83990753348395e-05
4.91767013401083e-05
0.000106778567740659
9.61320979236886e-05
5.1441518167789e-05
4.53640494535558e-05
8.08537941361067e-05
7.85497175053262e-05
4.09592932655441e-05
3.82216206009994e-05
8.16666724304177e-05
7.84122898662179e-05
3.84863601900927e-05
3.7132070659222e-05
6.93126015800921e-05
5.43041702190554e-05
3.54111732195247e-05
3.52167426089978e-05
4.48112007506156e-05
3.82893736606959e-05
3.31580403156931e-05
3.14454313282604e-05
3.47362951571797e-05
3.26532554754318e-05
2.94316518147786e-05
2.88534091430747e-05
3.15219451599572e-05
3.05182513041817e-05
2.73841312491304e-05
2.7416645873379e-05
3.01366992648891e-05
2.96689514404798e-05
2.6260165143209e-05
2.65641502867107e-05
2.97156821079619e-05
2.93071155775702e-05
2.64645018292926e-05
2.62644748669726e-05
2.88631408633404e-05
2.86917581016711e-05
2.72885563898003e-05
2.75336058661357e-05
2.95194519040824e-05
2.94787538513081e-05
2.72875306835903e-05
2.70667702468423e-05
2.87948876025357e-05
2.88481872495009e-05
2.70136156316438e-05
2.70649925620226e-05
2.92514303868309e-05
2.95027889809541e-05
2.63212231738945e-05
2.69246095148889e-05
2.89683164053499e-05
2.93907802465023e-05
2.74842659848007e-05
2.72880272386715e-05
2.97922243735625e-05
3.05710208173324e-05
2.83242082623706e-05
2.81865046765243e-05
3.09298935451801e-05
3.19086532544676e-05
2.9764309914058e-05
3.04579572984694e-05
3.31331018604327e-05
3.53942856034754e-05
3.25112914586828e-05
3.38371879972124e-05
3.90385687697926e-05
4.56407212550977e-05
3.61798273398812e-05
3.67978282937577e-05
5.5531408820639e-05
7.15249764962751e-05
3.89757602647427e-05
4.04220574061783e-05
8.09877940443572e-05
8.66750323242267e-05
4.00462958250694e-05
4.30912937401114e-05
7.98654045121512e-05
8.48279352808665e-05
4.59668512707721e-05
5.24247405212373e-05
0.000106944791072929
0.000117329876748892
5.32082764696952e-05
4.22874737775305e-05
9.55594961699273e-05
9.36788752129124e-05
3.26881801269139e-05
2.94148616651583e-05
0.000103088277770786
0.000101436266439556
2.53955830809773e-05
2.66374511308775e-05
0.000108575285552493
0.000112680601695827
3.14310724375242e-05
3.91889348661917e-05
0.000108674165930014
0.000101062277307193
3.72947275220247e-05
3.25567961287726e-05
8.14343252931897e-05
8.07059885432387e-05
3.7511207698718e-05
3.16660809856478e-05
8.29650396527116e-05
8.08845467016719e-05
3.20779160019002e-05
3.12068659992446e-05
6.93923818044982e-05
5.48711989433486e-05
2.92900941397824e-05
2.89959905615438e-05
4.40048592148112e-05
3.71081748797843e-05
2.67594462587287e-05
2.61294099587622e-05
3.32562093508644e-05
3.0682907476452e-05
2.42883582622355e-05
2.4137108740341e-05
2.92962404927109e-05
2.82070571074466e-05
2.25868143823971e-05
2.29730854122816e-05
2.77846075694507e-05
2.71201010208659e-05
2.20412780530314e-05
2.24012934795504e-05
2.67906816744393e-05
2.63300812656075e-05
2.19623715803884e-05
2.13535824880167e-05
2.67447700581533e-05
2.65167501499533e-05
2.19217080600953e-05
2.20658303952849e-05
2.6074834368656e-05
2.60330686470313e-05
2.2102124036662e-05
2.20079688923006e-05
2.66350753393718e-05
2.66985006218093e-05
2.22008936898562e-05
2.22575309223884e-05
2.60836937332057e-05
2.62392247154344e-05
2.14577441121084e-05
2.15496804735666e-05
2.65585479987478e-05
2.68647269431848e-05
2.15787392955551e-05
2.13047591804322e-05
2.69099600292051e-05
2.73788634979115e-05
2.24147818626367e-05
2.20635592915699e-05
2.77999386439478e-05
2.88137266899613e-05
2.34360756499328e-05
2.35554224047379e-05
3.0084910415042e-05
3.24528216449062e-05
2.54413681824974e-05
2.63223575629973e-05
3.62254251409625e-05
4.27895266171141e-05
2.82466864997562e-05
2.82181152596063e-05
5.37959435351269e-05
6.68942353738722e-05
2.98548647176552e-05
3.07856348657578e-05
7.78658890931723e-05
7.88675507024512e-05
3.03097583098115e-05
3.59771217167302e-05
8.0024898490808e-05
7.83917224053574e-05
3.2488689619388e-05
3.06160122883859e-05
8.12814752655586e-05
8.04702025787092e-05
2.6375654995025e-05
2.71195181329186e-05
6.96220001339417e-05
7.02641866406426e-05
2.65715151170639e-05
2.5002839356669e-05
5.32692283056893e-05
4.67277812756745e-05
2.52724079947427e-05
2.34568379124429e-05
3.5853729771461e-05
3.3926410501912e-05
2.32383322616761e-05
2.12624378615988e-05
2.99103386698155e-05
2.92054859298544e-05
2.16304506359529e-05
2.00998091332689e-05
2.76211754385002e-05
2.72159227210699e-05
2.08331863246463e-05
1.95350986833142e-05
2.64372444389641e-05
2.66595692971143e-05
1.99239509469671e-05
1.99230360456793e-05
2.61929464805076e-05
2.57993700987565e-05
1.98401782378641e-05
2.05588906236806e-05
2.54504996077539e-05
2.63993067222196e-05
2.04070955785587e-05
2.02549605826438e-05
2.64080601046164e-05
2.54011635747667e-05
2.05264084604664e-05
2.04571739713274e-05
2.54698981607705e-05
2.60785071670162e-05
2.02464687192726e-05
1.96937077186292e-05
2.61727282818512e-05
2.57760041068273e-05
2.02650873486989e-05
2.07522205467e-05
2.65225617022514e-05
2.68000312043462e-05