/*--------------------------------*- C++ -*----------------------------------*\
| =========                 |                                                 |
| \\      /  F ield         | OpenFOAM: The Open Source CFD Toolbox           |
|  \\    /   O peration     | Version:  2312                                  |
|   \\  /    A nd           | Website:  www.openfoam.com                      |
|    \\/     M anipulation  |                                                 |
\*---------------------------------------------------------------------------*/
FoamFile
{
    version     2.0;
    format      ascii;
    arch        "LSB;label=32;scalar=64";
    class       volScalarField;
    location    "1800";
    object      omega;
}
// * * * * * * * * * * * * * * * * * * * * * * * * * * * * * * * * * * * * * //

dimensions      [0 0 -1 0 0 0 0];

internalField   nonuniform List<scalar> 
207032
(
3.36610880918188
8.27068946768694
28.5220111117703
25.8065453825687
7.03443139682116
6.83468458342854
25.4349600642479
24.1323414335322
26.6476853073402
4.5140188237557
5.11767890635764
2.58173460230552
2.17020732015627
2.29025242432281
2.69044142983675
5.54706768727319
25.4553462272608
28.3487014108966
4.68696461360924
4.87121094741335
30.164610988452
27.1632056192561
6.09219611280996
2.90688938860379
2.41264722493897
2.59145529813874
3.15775443501082
6.82479478045303
29.1526172169314
31.907037871689
5.38616409477283
8.56117171876393
37.0413788079784
34.5728150056935
9.77708903934158
10.0644212790135
35.8781895329543
31.6733392852879
8.7655232281653
9.62935789285435
35.4637391255729
34.2073985758489
10.0516243242892
9.64859486075536
30.4639676876126
25.198184706954
8.08173466966354
5.33445722123455
19.2693527153059
15.3436583759806
2.89279175831809
1.51860548848223
13.7386409994397
14.0712770105254
14.3850306869816
1.07608796803504
1.09084299809154
1.02279583321836
1.00357632437996
1.00224700641528
1.0011384322608
1.00461648660033
1.01644244825368
1.03082571616909
1.01219997993277
1.73826302667688
17.5347412575916
15.3108502649817
1.67928800567836
1.06975352130245
1.0418337230709
16.6687280825044
14.8780123677756
15.0809171330888
16.5571683406552
1.03051778271801
1.03791061382951
2.44197706016177
16.6743535802936
19.3501263101846
2.38538242192178
1.16065322124724
1.20588637079151
1.21191709449951
1.16345480990894
2.93310605344596
3.54366201383458
3.54386315990979
2.94130981296763
2.09336650770368
2.34754312213144
1.21882173725837
1.1679668021811
1.06017473256538
1.0835305804902
1.31752966620114
1.18730554814181
1.27981628050372
1.40000601893265
1.44409355445088
1.37054636896716
1.48153323690696
1.58034486219759
1.91375633765103
1.63370572474778
3.17545568346223
4.02875188769743
5.44041662823215
4.81575478029254
11.0839754013529
47.6655498665475
45.6290436102868
12.0510975794729
12.6605100973522
45.3008234832707
40.9946230468619
10.9380890645989
12.0879035347522
43.6689795593246
50.3855852642258
13.0342667069425
13.6827473019343
50.6533620424609
56.756478592694
14.641893603199
14.687899661443
62.2502065941004
82.6838381215341
22.4022085149725
18.8696892643658
70.324751331716
58.365485368869
14.8729796110521
13.8042309022469
52.6307673746619
43.335471226794
11.5380361678814
10.4219963884968
39.1427914738508
36.6859127708348
10.1164979784044
8.09218300852339
30.7339272576074
28.80628323657
7.87210814308776
7.3212848306153
26.674311256236
22.8752438097822
5.9589111418836
7.55194199428302
24.9937361060788
18.2468053732665
4.85813115195241
3.35676878936795
14.9408941178376
13.0727953789861
1.96762140345097
1.03819506282244
1.01054995033951
13.8826513861224
13.1540362811103
11.9403490536722
12.0348993904614
1.00269376950671
1.00926906893764
1.00318859748418
1.00106514408999
1.00255027686004
1.00907539296518
1.01100332567609
1.32778151964834
1.40775401981038
2.083522529342
12.6802553199306
12.5438238806994
1.75960060838453
1.00575775709882
1.00167191763502
11.8498111893451
11.8081078917254
13.2079067117495
13.906448889259
1.00444077214461
1.0101936923913
1.00066077663924
1.0004086056255
1.00011528469346
1.00023811539565
1.00081538327859
1.00027119769773
1.0005414603297
1.00303282927151
1.00117821073864
1.00027408373478
1.00023549058316
1.00037450530951
1.00000240538216
0.999985078006073
0.999951661669292
1.00007144438426
1.0003107885105
0.999978935407958
1.00053483569772
1.00276552971833
1.04113013628427
1.01984577233319
1.00251481154629
1.005243394589
1.0212722517144
1.01453569694353
1.02594636130464
1.03548792410123
1.05547533509592
1.04605846437459
1.10935065156784
1.14442130529989
1.18460233538508
1.1481433003157
1.21221814125172
1.25341794504006
1.2652809096153
1.22257439920457
1.37265000754886
1.45939319267089
1.4799165806327
1.39054757548639
1.85796770988403
2.23114638427357
2.31696595699195
2.03576596866612
4.89628345319364
5.45538134895673
5.41798834967064
4.88578390914976
13.7998544497788
13.4323724428215
14.0469080155787
15.5643849702933
14.5330260574107
13.1712661606003
18.8553182768838
79.4372141568942
96.1664725586179
22.1068201808372
22.708630418516
99.0591627909083
83.4190738139441
19.6355792350292
15.1441266910364
68.1670364177944
65.3037113091779
14.7195191352615
6.54665122109825
4.01977551624575
3.28004347524857
3.75065640962321
3.58349625136653
5.08941361575975
5.05197242508247
6.73742458127819
32.6433092679821
32.1801378728996
6.7030244932397
6.66367098424895
32.3679302643089
33.0281281860148
6.82292537404374
6.77936002076603
32.3429738802499
31.936090580872
6.69477578895695
7.25063882291582
26.4657146582608
19.218576437863
4.84099781308543
3.30583622218058
15.2447397747677
14.8132105945205
2.5436930321225
3.5296234358555
15.761780964794
13.4309527311834
2.17776311824237
2.02057058965303
13.7560683824934
13.9444163020333
14.959840523067
1.00388382017888
1.0115719964083
1.00083386473396
1.00025799051837
1.00009234567606
1.00021636869842
1.00017972760437
1.00009239714686
1.00009075540095
1.00022650247532
1.00034662223456
1.00008065860485
1.00000753908484
1.00030932287242
1.00009578833068
1.00003217919375
0.999942244003899
0.99994168288036
0.999937271239062
0.999918692841086
1.00008771223609
1.00040196968554
1.0036061187035
1.00134237016142
1.00060539491196
1.00095425889777
1.00865052981149
1.00494648287231
1.01970875334902
1.0287258297035
1.03843628392034
1.02900169098883
1.04790471095169
1.05463359952262
1.04675355061595
1.04090364912341
1.06533448365946
1.07180115117257
1.08222568346406
1.07152836006685
1.10405322969363
1.11615954448744
1.13754089025158
1.12280546612894
1.22873223678101
1.27038114170413
1.29883379309624
1.25694159580713
1.28373802186889
1.32640275469786
1.3576981442829
1.3147295528955
1.52324012513908
1.63825337006965
1.66378465177319
1.55280152451063
1.88882483906803
2.2066368483224
2.20138170719083
1.92143117482851
2.11926260850535
2.34594366082679
5.4773521283632
4.99180434513637
4.96061732759001
5.43968603938919
5.89443515381016
5.56568256667604
14.9409979875952
13.3725208419548
15.3082361737161
17.2742549494232
28.6664920610315
22.3275578531004
93.6210936886338
113.255729348422
137.090096361008
105.479484468961
22.209429505877
31.2987868216529
18.0810834835825
18.4202656085095
18.4336535216409
18.1368779367012
30.727605985451
22.6663496742589
111.622260719891
143.454367564785
121.121572167976
27.6986817755551
22.0328596523049
106.351017892438
96.0479649658634
21.6249242170011
22.0036618836668
97.051210774045
94.0309296506775
20.5576869754177
20.6694736809928
91.2598877744074
87.0492610736018
20.6570295819033
17.5934579252802
84.4959951267525
77.1021563257624
16.5277965444815
18.2652230812538
65.391934018571
54.6503133367758
16.6769802680393
11.1560195559941
39.7626157209394
34.9480844903821
9.31608119859684
8.35190427809845
32.3668831777196
30.2549416762754
8.26476824029049
8.25404267536284
29.1213086440783
27.4230682377942
8.13463966210799
8.13014212599301
31.4657669723028
40.5448495272096
8.69526126794323
8.36958299238269
37.4932323299874
40.9017033850412
8.34621571935884
6.83191728823265
36.6659389000491
36.0411803027215
6.78338394279072
6.77698438109999
35.880121748743
36.4696277306426
6.81175778888849
6.89207975225668
37.5487916716991
34.3164742688588
7.62755996206823
9.92774150663189
33.4948225692039
28.0937617397567
6.47324475417907
6.34158879998333
27.2414730081722
23.3247368136628
6.29363018423151
4.7723680109364
18.8791720320961
17.6166144847277
3.72842987120261
3.2260736121143
15.6485553002861
13.4120558831671
1.77134529931672
1.41440865368662
12.5006162569481
12.8236216678528
13.6192669059871
1.00347055064175
1.00924267626789
1.00797533765922
1.00297265338524
13.6044794564429
12.8124971536401
12.4972942232923
1.4210457213258
2.02119952870773
13.7715747325045
13.9329140205122
14.9140124210359
1.00339043210722
1.01192162748627
1.0012519326332
1.00031787778371
1.00022754062468
1.00053640351007
1.00029943000956
1.0001095835146
1.00008596923954
1.00033745737391
1.0006036382761
1.00009437069643
1.00006958817785
1.00212488865547
1.01790078647169
1.00177086961806
1.00074975858973
1.00018462445472
1.00429484871087
1.01464961225027
1.03657479926304
1.01301616717506
1.29171806787283
1.37532250661963
1.07450655006235
1.04165605175712
1.09480641105849
1.13572080719261
1.16530228785408
1.12098874285842
1.16232082228211
1.20810955108777
1.07013359451898
1.0589578463837
1.08871992093318
1.10052429916496
1.0815396488301
1.07377471608961
1.10678284274487
1.11631814701709
1.10614725809215
1.09845506319637
1.11576917766071
1.12626537212136
1.13679632697907
1.12256254169544
1.1476734362591
1.16243883906691
1.16253487335023
1.14761157252633
1.17557971876063
1.19151824305813
1.22611079257325
1.20889983617954
1.24704229388916
1.26749609307345
1.39291803996462
1.3496809856272
1.38330419546006
1.43191441539123
1.68861746714881
1.58407720118163
1.61938897807071
1.7187971124167
2.20538740014912
1.95874199316874
2.27199990838015
2.39660634431803
5.53650507294514
5.13509245785123
5.81789345301347
5.93058566569364
8.64873980266995
8.52681191880618
8.59832824287688
8.63505573098772
16.4811458415819
16.2415605912703
15.7147307590377
15.2262077865635
21.569778220046
98.3057533308983
110.431776695895
26.4290051770774
26.1771342135899
112.888954543905
98.3540613373826
21.424163234998
20.4149797499921
93.2613585936484
92.1406686489709
20.7245267874356
20.4137277445937
94.7348645828565
94.1469451192793
20.6701639729368
17.4698610754603
73.983248628439
71.8129337633164
17.3337274703724
17.121227568887
58.72562499106
50.1916283562062
15.0257646269718
14.3030315271827
44.134011163192
34.9120404647233
10.2541881042649
8.48519490592619
31.5333898821196
33.8496392114217
8.25331507791448
8.18301461752547
33.028840201823
32.3938875158267
8.15753347163904
8.67120317234147
41.2778928245151
40.9342802869777
8.33370901563633
8.34424206704298
41.0485394401626
41.9803764834344
8.38700204763224
8.46363196363339
43.5359868489821
45.4929980994416
8.68423969301115
8.10007749938517
40.450408827424
40.4160708213258
9.79263205848917
11.4735964473169
47.7748613384075
50.5830471378986
11.5678465652969
10.6766045470934
39.6699350341483
29.8998121110595
7.20541376537747
6.11497330622691
24.6102299110596
21.9958009264799
4.59396216273613
4.46617488423113
20.6590320868477
19.14210051985
4.15000720702998
2.52966818453484
15.5314437990319
14.3688381370269
2.07562294093394
2.28247469279356
14.5219570505671
13.4060000028905
1.76205676126213
3.21134211594777
15.6657196900394
16.2725393806457
4.00748101050407
2.76518180454573
15.2036090909318
15.2732519439482
3.30451872560759
2.0751775446879
12.7257496312626
11.9335936961922
11.9846805994942
1.00186584573567
1.00781097335411
1.00207870431969
1.00041480569377
1.00145569052246
1.00839587148052
1.03932081290993
13.1930630765278
13.8435919470743
1.01381710570526
1.10447256926019
14.3406538576252
14.1245114340146
1.11384796460076
2.40040865730925
14.5973916351228
16.0448207552608
2.33212850694761
1.80920568265224
17.6605101723873
20.4609204013672
18.9785954526056
3.72596032416209
3.30442020369456
5.48066098548531
5.06282654765272
23.3117672405354
26.3736488484858
29.4749507928022
25.7990101426333
5.09879799764904
5.16670668406277
3.29683146433171
3.76699694935333
3.75920995932922
3.28896048969077
1.29615997690678
1.38423330275747
1.39486647774307
1.30265206848266
2.29234074348524
2.48257750424209
2.73175719745502
2.3933663386624
2.63061586875216
2.9633411317734
1.5309185018248
1.43082306618647
1.61570941511232
1.66340879823261
1.25965055547049
1.21715523037493
1.29703437065969
1.32801080325432
1.1350512103735
1.12186433662903
1.20853627329357
1.21684269559831
1.17153008129918
1.16025387999101
1.11517557698324
1.12628181326459
1.16093936273481
1.15093814733565
1.14361412533276
1.15440004227479
1.18911851867139
1.17776288839469
1.17825738420206
1.19383887439528
1.23213407911543
1.21555499967684
1.25807327602041
1.27800873938084
1.33318080371791
1.30227866844179
1.28513707694221
1.31652169296624
1.37079685135133
1.3302363959815
1.42116742888099
1.47608904996623
1.49323892118591
1.44048756678085
1.47069728405585
1.52311433199285
1.74242513976786
1.65272653897244
1.67101772558592
1.75625860572532
2.18820820792345
1.98322058283003
2.0278527321465
2.23473316747432
2.41789817968288
2.29252265259938
2.36155803521737
2.42247354628917
2.42269143188724
2.65195356189755
2.28596654307135
2.398011568893
2.39717006231597
2.27120916661727
1.98139310857972
2.2069108716923
2.18432909391692
1.9628394797349
1.63931286843048
1.73028372978612
1.7236869769967
1.63245411646153
1.74124190313737
1.78398435111839
1.81106334273782
1.81144221840559
1.81696975095077
1.74583650222576
1.74093252741697
1.73804895531727
1.73272390110609
1.80509577036364
1.8156405272868
2.10110928990849
2.05994415933474
1.92806783991637
1.83699040851542
1.84905196926015
1.79527236027586
1.72295651546981
4.2127894806519
19.6867863971642
17.5848468530241
2.87614888987293
2.65319525505371
16.6705210475796
17.7739246295304
3.16564183184106
3.10176552866567
16.2364892490422
20.8885495712862
5.5474826775933
4.08526909008832
17.9327510591674
20.2404784202922
5.34925157635833
3.98547519285223
19.4065921453456
19.1073572880529
4.72766507577626
4.91647329871282
18.5196884557409
20.3521038046406
5.42982210074728
8.31376973363794
26.0332192765664
27.3471530317899
8.93461077838285
7.58210730851202
27.5643442943536
29.8356639743198
8.18646773731431
6.67982449977295
5.91708669839889
29.3779919247597
29.6871553449628
26.856584830176
5.42627203379415
5.19956121466078
27.8431673671263
35.6875586674778
35.1726934414426
7.88673287567909
8.58823979367206
3.67385799300422
3.141084761562
4.40818412255656
5.05608421314579
1.987404129792
1.93310220253079
1.97193180779063
2.02614105927496
1.37601661547568
1.34237853152484
1.32106163031567
1.35493797293435
1.35984524677314
1.32503552425698
1.37343706880161
1.41056131443946
1.26233440152728
1.24332285562404
1.24661048870802
1.26036384887339
1.21093006773498
1.1951202412957
1.19129780028089
1.20845153591746
1.20032089396447
1.18858806547277
1.23548037459003
1.24817533227444
1.23188452589801
1.21927862160889
1.26783458087155
1.28376333794235
1.34584985329025
1.3173473439016
1.37454197598897
1.41433327650007
1.39244252793233
1.35224265556716
1.37547691618447
1.41396814473766
1.44696522256672
1.41048575645873
1.39261836736135
1.4263599293026
1.42040624488768
1.38435277065312
1.46819184179747
1.51824584289302
1.5486768269996
1.4979665973149
1.50424821730997
1.55563013091487
1.76583539597212
1.67810307222118
1.70515374935457
1.78545347553357
2.19926158748516
2.00952483717631
2.07339168947123
2.26739637105851
2.45179585468973
2.32516051885611
2.54838263649841
2.54554763402263
3.93078261484262
4.1346348425244
4.17716975004412
3.9561411276069
5.90050689535751
5.82358114567656
5.85318839188065
5.90174674216948
8.56485861052818
8.58421017013104
8.63906225202324
8.58048610830141
14.8452129038769
15.5056803955558
15.4380266108352
14.7671696418614
21.5104860199505
101.506050851913
117.389209529075
26.1540975720952
26.2499023209433
123.418182075375
106.258941630348
21.7029688343405
20.3996056473377
102.060764425606
96.891815040389
20.3444484956288
20.6800732729815
104.005416902106
104.399578290169
20.7897257565912
20.7287404023172
98.7654496032775
79.8747866315442
19.7588449169074
20.6018901880539
71.3368751930648
63.2455490703599
17.3026520376703
10.5956944858462
7.55011312664641
6.20287815565049
5.76281991801097
13.1441144067993
43.3334845266544
36.2009327677277
9.47680340103032
8.85580887460088
44.5509879429763
42.8712430253888
8.66827516798245
8.6575404690037
41.7640506752579
7.60607517971013
5.38979740657483
5.57544768781423
2.52661176423094
2.64681315019598
4.16091984206535
5.10689600479611
9.63028998649001
40.305840067624
42.4446989763683
11.024612812875
10.2798700951126
35.4945133778806
25.3377985655568
6.0426075296979
5.0486742172765
23.1098154464908
25.9290829837681
6.6196937466715
4.80142176047807
20.8877296200465
18.6575939771902
3.43450762571998
6.36470698699855
26.2697249951793
24.7672378956942
6.00453134751612
9.07336021435434
32.7478159379002
42.4668843432933
9.55644274319349
9.59191022122413
38.5014448271523
33.4325341698658
6.75750721140193
6.60975147969006
31.1274103489929
26.0396346564683
7.0745154041733
7.55705125454171
25.4632990355273
23.7326645355166
6.13886825329577
7.92258630186489
28.6101673057453
32.2169340922057
10.6039987913244
11.0712836733991
35.1012930109224
35.4542683667015
10.3167274968703
11.8066042582283
44.9233835563224
43.2626612076569
44.1086941180585
9.2678751751159
10.1103502196683
12.4854541872263
12.5571454794874
56.6004456055688
51.0613077226893
54.2123856983282
13.5929733536456
14.7623169530056
60.5146229641698
60.7835970496655
74.1747598608211
17.549003078577
15.8473407790703
12.7074165967182
12.5909887049781
11.6143618921701
12.2246892987669
5.0954218102247
4.48844591248354
4.49810466390243
5.08725776733744
2.16549536140523
2.06924509842059
2.12852490339486
2.21979680579575
2.0736087295298
2.02634579275768
1.38072382758288
1.41357365028683
1.4634685197461
1.43052007207531
1.49315097148974
1.52856728661092
1.47185619249074
1.4343147301072
1.29964523011126
1.32006257377147
1.31664797164411
1.3013179653058
1.2462897403507
1.26369445656058
1.25790706222294
1.23909046973023
1.29478893579527
1.31811635293931
1.30567045326315
1.28943729443778
1.34570607224997
1.37461987647464
1.45197030607367
1.41006573896018
1.44251237778846
1.48181893163496
1.52743233522087
1.48957689393819
1.45530103726129
1.48662945312103
1.48250705075076
1.44847561748419
1.42462008824872
1.45927202155326
1.50119474444458
1.46670226722875
1.44791979385925
1.48418290351349
1.46312263523335
1.42873633507288
1.41800649714377
1.45274179852577
1.48511263078027
1.44936259081789
1.52519990651939
1.57739002228088
1.58783560843582
1.53505966891461
1.70070586452023
1.78896922859516
1.81608748057403
1.73575248512685
2.03003371473587
2.21347823224014
2.30287169206281
2.1118191110073
2.35968265945717
2.49073544714638
2.57916683307826
2.593854691009
2.64100023702804
2.61738174580421
4.52556822787669
4.73749086098235
4.69290912509753
4.45991956836736
4.75139628332961
5.00002518753645
4.92306604824906
4.64567205961075
5.93907574366888
5.90469419336188
5.97237964737303
6.00904284334841
8.69732937418723
8.74907502947289
8.89572381607176
8.86316147159703
14.7814655506524
15.4495935017946
15.518281087865
14.8448647102575
21.9574423085781
111.875270871312
130.383967836558
26.4164151964607
26.6512135792146
22.2753956236334
118.320461300236
138.484755546159
147.695657174591
26.9362432780654
22.6587067946154
125.369207236667
121.436798662161
20.899200478608
20.6688892597548
114.609208023683
108.10119010888
20.5049546615505
21.966204591759
118.486697308611
117.854752564083
20.947159584503
20.8441217752057
110.825508020153
107.585975921623
26.2184044368148
25.1096775034698
94.1824709474286
92.1561153338126
26.5650980319566
22.347383695734
71.4836126220413
65.9410856212576
20.6964250106491
17.5075838340818
58.3821552705709
56.4695295783226
13.4949973560221
11.4887002614862
48.9819217869107
7.73060654140747
5.35765434027811
5.74429663131012
3.19091544995459
3.06402616734272
3.28848949757901
2.03416761700218
2.66750506295436
3.62080570155895
6.39466688818236
24.7253541176444
26.7269718740421
7.49155038281976
7.9602440734697
31.81142155236
41.2824564324973
11.6922697409256
9.72342148537252
36.9610679415455
33.2209163615673
9.78007987920276
9.04597990563661
30.4645245988321
36.0812749592409
9.10826539682699
9.56305647769567
46.7347367868592
44.5086947538694
9.34147848275142
9.37809781558606
43.0993970212338
42.4702824218513
9.28614616619024
9.20800734412155
42.634705638919
36.1200214695286
6.78625298843228
8.26683484556056
40.1718548515238
40.1309310051802
8.23087168233179
8.23720799932429
36.7837648296016
40.0310132928222
8.5130452970928
8.2287689005449
31.2174214478605
29.0415283341909
8.4407929274882
9.49115982472733
33.3468674566062
41.4513001607637
13.9264265782873
14.6920656121106
46.0159833010749
54.4723555171527
13.8045250798855
15.9726645887816
60.4026098021705
66.5095081673145
16.2580397326001
16.161145209033
67.7216244675023
61.7103467468768
14.6412949958088
15.6247763848403
16.9692273352504
81.771499304579
63.9348802646835
61.7619312255435
78.5272859329423
16.7195495258986
15.505801147274
11.096261515467
10.9861911422172
4.76734675409995
5.3585652539481
5.14591172974634
4.64227633696299
2.19926105132329
2.2881313744063
2.12221291572808
2.07820078781843
2.13909719986053
2.18259269735198
2.25774550829685
2.21159695976624
1.56975860211516
1.61029202079627
1.54634632617378
1.50508596973235
1.36813268376851
1.39372903143883
1.38784696903923
1.36756767174063
1.30744380716997
1.32926766627476
1.41250291893744
1.37691415673885
1.35600162554563
1.39208172569259
1.48496612914216
1.43345850801737
1.47692228297911
1.52717664626571
1.59512892101088
1.5531992083156
1.51381872550402
1.54318386033801
1.61655448910659
1.58568843936639
1.55100638578775
1.5938643960265
1.53536353178228
1.50465943100938
1.49313896211938
1.5297555861617
1.57914244195579
1.53946648748985
1.50663662509091
1.542931186869
1.52123799320119
1.48307586821915
1.46139319757894
1.49803637312606
1.53065243521046
1.49135536670899
1.47854903191306
1.5165732352649
1.60403763254866
1.55035542113903
1.5637371645442
1.6197841906749
1.81138720378706
1.72165814359229
1.76411902014164
1.84676604736237
2.22926012428426
2.04872968029772
2.14798691468684
2.33953592828533
2.53406517429514
2.39615468357926
2.43381059750439
2.57763805937176
2.65523978643346
2.68321673449926
2.72874861404368
2.69547730613616
2.7354726568743
2.77189145888798
2.82028817115545
2.77866755214892
4.87181349436518
5.15976525302135
5.079108381374
4.76405018107075
4.97826859557466
5.29148423597595
5.21015140439952
4.87270588222534
6.10316152019692
6.04414324774936
6.10466869302075
6.21151756880597
9.05947315524192
9.07104781836455
9.26590682429644
9.28846635815008
14.9548223838675
15.6400437083624
15.8110800881472
15.1161749074412
15.3280698164792
16.0251232912605
27.2733388744323
158.184516270188
133.063472395333
23.1048484914048
21.1732835537619
128.542261287913
145.012709558669
22.5079601355661
21.6311441746863
141.316291440813
132.792021775233
21.2907969605838
21.0937191143765
125.004081615188
120.579614923435
25.2078214207881
25.665677556002
113.828926449793
138.606238263875
30.7035570271431
31.729551167689
130.215573638444
132.07142688399
32.1415435043791
32.4343675017972
119.000198367502
133.116665532757
31.542426606452
28.4170052307557
25.0334380368197
27.0313735521101
109.661433153605
104.817984852358
26.90953276278
26.3635990898604
97.4928820947343
94.2029125434487
24.8814572880843
24.4655683628922
97.2580776739637
101.720337832707
24.6247156013322
17.9275699162688
71.4821389816946
62.328205357951
13.8245935757496
9.46974821996341
50.5699531297787
47.8785061045224
9.02719032907503
8.3532345836053
43.4617699789856
51.6992252934474
10.774578085529
10.7207357173353
52.9115567811383
50.7316035123295
11.4950356699024
11.7740361383953
52.6270809519398
55.1841161965305
11.9391960032958
11.0691139473056
47.3699348846878
56.0688290549305
16.365349758611
13.9258473444262
48.2735305928692
39.079365137979
11.6227999093276
8.50348405655587
32.0232240462553
29.0205789141784
7.81818161899591
7.0259153713905
27.6784911253017
29.2247662306498
7.84941371865499
8.1957660235337
34.2613458575867
46.4278569202955
11.9460982264699
18.1300551735106
66.308738497622
54.2807483538
15.8658211635142
12.7238883187425
47.1389045584782
41.2208777817477
11.7228398001679
11.5143152193605
44.1653660531356
51.6612523775592
10.1401412670603
9.79087115907067
49.0315284468537
48.9219236814371
9.99803975760591
8.02340043703255
39.8171845285115
44.5507576681234
9.76910434377695
9.12087065273881
42.6501870811782
41.0679041093019
8.6617411472738
8.39198514387426
40.1715222737163
40.896446017714
8.68025589662199
8.48131109442174
32.7581463413267
32.0185951232124
8.73247999290772
9.98968564125415
38.142054905686
52.3274338570428
14.0790736878643
15.4375549927615
66.9660757012635
69.092173637207
16.2381780421954
14.4743811001153
61.2384469274397
61.6817041702972
14.4946656184522
15.5931947202666
16.7210275558365
77.8320577326672
61.1116888603874
61.6449259960647
78.8292125038039
17.0180503731417
15.966753927336
11.4417011899764
11.165053342682
5.17970005030172
5.78098744830035
5.25061505280293
4.79241123543239
2.39649002812625
2.4852906304689
2.62760215703658
2.51823850649232
2.29256557109571
2.35931251014166
1.71657149828922
1.65525597055298
1.58348200111679
1.64202669369904
1.49057855835566
1.44734950502429
1.44512446253717
1.48154978261219
1.61608963546601
1.55495581183757
1.47300008911587
1.52797582949366
1.57486577296938
1.53653833011767
1.64392628987265
1.66705032242417
1.59634579696946
1.57523904614037
1.69277832541265
1.7155917593972
1.70795468705799
1.6543038476175
1.79493322177411
1.85769403506494
1.71539102717329
1.68228029670833
1.62655584176553
1.67298919687444
1.59235166189615
1.56086077154614
1.63125331411332
1.66373812080908
1.63455584133691
1.59176713205013
1.54744830096157
1.58581897104254
1.55818039494286
1.51677853755572
1.5514260119706
1.59699439637896
1.56220541364019
1.52044654327135
1.50604363421908
1.54654984280329
1.62865434993182
1.5737971439438
1.59132446254888
1.65079541053079
1.83352944385572
1.74227401867155
1.79185712168751
1.87748527145879
2.24640583951766
2.06805321910506
2.18445632349077
2.37637285095913
2.41245869644364
2.22038435193506
2.47295443404468
2.62372082404058
2.66874078412514
2.51217793656726
2.55215717443892
2.7129446498696
2.75420165802684
2.59089070298548
2.86724543465688
2.82088034984562
2.86564711369007
2.91926059662783
2.96886485933866
2.90800273488374
2.95186153300014
3.02223295927349
5.40589396640738
5.07959442637383
4.97123804895885
5.32251559687009
5.5002824448569
5.17057230571702
5.05344125697152
5.41275499174351
6.15679566578935
6.32741355050368
6.44216320990024
6.20088178458686
9.46959990443307
9.54424074137752
9.81595421832245
9.66754039251156
9.83989281908051
10.0855419787691
15.5835981085782
16.2731836774185
27.6743363635254
170.118592054756
141.562165376163
23.5986825302398
21.4944121075345
136.071925350231
155.1561292214
22.7811257684259
22.1680112379668
150.506644169217
149.607772940488
26.8535363455934
25.4855613559232
137.558495034726
128.397986074413
25.140001472675
30.9027005754245
157.096089806444
143.113244542731
31.6759931077249
31.568696174793
134.226330595459
102.881423458176
27.2752478180136
27.0581964158922
102.864855909782
96.1064025331901
26.0463403109296
26.289856059425
104.331615081052
101.963345440238
24.961990356829
24.5953543825117
107.503382576055
103.611713569795
24.4487635701495
22.2270427913539
99.304002431351
99.2604811598584
22.3311452547517
18.6047449554811
74.5458464509653
66.3270114343033
14.5072564255529
10.0593019440611
53.2625599681034
47.1160450889795
9.07498035667422
8.65759380034143
44.956846219971
6.22482628815588
9.53298368596757
9.50594231854256
11.1282970587946
55.3025704595111
58.8158483372046
12.116683250396
17.4124091915377
68.3299782463059
63.7802065777592
15.9370482137428
25.3717836051963
88.3396642108267
78.1507669196595
23.4738062513714
18.0509906685058
58.5778976409568
45.8368277587211
14.3844637788182
10.05399763808
35.4584529320797
30.5216151524965
7.91603416259677
7.2537233061624
29.1254997803452
30.4243450048458
7.97390549124082
8.41069133818514
35.6324826861003
48.7962385587824
12.0530240081647
18.736186826868
71.8901455025053
91.4261297654305
24.4672324890214
25.8271359007827
119.811964058991
114.079264874268
25.2044124905665
25.4793199830505
110.636288448189
101.301201495463
25.0594324322928
22.8840622248913
81.8910657533276
59.6745444701925
14.4119037546833
15.2717128813419
60.5999182104591
52.9328277516495
13.5807580049465
15.3299756608479
57.260355678971
48.3288910542627
11.461992383061
11.8060546778523
48.8831433058029
38.578042106342
13.4601691171234
14.5349179850085
37.2994745350845
44.4336003579689
17.2043903192566
22.0926008743479
64.6772867662766
84.2367331421816
22.129338324561
24.8317793740906
91.1218916346667
83.3956075147977
24.3549048092037
29.6878662078986
33.5689888978283
133.313515153783
92.1634821197097
88.7923350521932
126.65345610172
29.9504227738846
26.8944473581823
18.0069792620237
17.9004908742299
13.5895798750544
13.1350266677458
8.71755339029143
8.47472712303462
7.82750579535062
8.30725563287974
6.98413812720503
6.55693707908065
5.33403853851569
5.67451849508113
3.92475005458471
3.79562473455837
3.66276010004966
3.77068031602572
3.54177053792159
3.44302571535354
3.21693822919981
3.30428053065974
3.0788218386117
2.97499020175703
3.04241115202251
3.12437830344731
3.25474693444611
3.144460583871
3.22898222237718
3.33223525536501
3.46722371929956
3.31480027961217
3.34537374038836
3.46777091735044
3.53552705064836
3.36131314414502
3.27636373031967
3.40685248383003
3.11943372628028
2.99332105012149
2.82710228232873
2.94267694527929
2.52003885074679
2.47139723210497
2.26256875522742
2.35378380882742
2.04650981784638
2.00257282895976
1.85789301564061
1.91219683362481
1.7580536312132
1.72379477453822
1.65698504717042
1.7023735969121
1.63475141950737