/*--------------------------------*- C++ -*----------------------------------*\
| =========                 |                                                 |
| \\      /  F ield         | OpenFOAM: The Open Source CFD Toolbox           |
|  \\    /   O peration     | Version:  2312                                  |
|   \\  /    A nd           | Website:  www.openfoam.com                      |
|    \\/     M anipulation  |                                                 |
\*---------------------------------------------------------------------------*/
FoamFile
{
    version     2.0;
    format      ascii;
    arch        "LSB;label=32;scalar=64";
    class       volScalarField;
    location    "1800";
    object      p;
}
// * * * * * * * * * * * * * * * * * * * * * * * * * * * * * * * * * * * * * //

dimensions      [0 2 -2 0 0 0 0];

internalField   nonuniform List<scalar> 
207032
(
83523.6664099074
83537.2935142919
83558.9027323691
83536.2948957957
83522.8352003303
83512.9343229948
83500.9824684925
83492.1835328583
83496.1340250654
83507.6044489807
83507.6773742309
83503.9963994737
83504.2617058348
83512.528454962
83512.0801756904
83520.3197315509
83521.8354346272
83520.8210909674
83521.1397330453
83531.4120338671
83539.7391624524
83544.2129984968
83531.3730841986
83522.9043882442
83523.1358012899
83530.3331804313
83529.657844594
83531.7924086985
83537.3880235461
83536.751653291
83532.2037379606
83533.0652511369
83534.5624384596
83533.3079423264
83531.8921010897
83530.064047157
83536.5249703541
83545.6542379291
83533.1318770835
83533.101384112
83546.1910017136
83530.8909651822
83528.3921718519
83533.024902265
83547.9896460031
83490.0181869581
83502.5610253783
83488.7658382922
83465.8523807343
83471.1252003085
83486.1284255233
83484.2858224165
83459.5034591022
83555.5744463076
83554.4178711949
83517.7191212164
83509.9592907829
83502.5751674192
83502.5859286344
83503.1229773691
83502.5527487325
83501.6046867483
83503.1852230657
83497.270596136
83497.044134383
83491.6204385755
83490.1483652432
83472.2298023827
83488.8078183339
83507.7328360849
83501.8786188222
83523.0722898449
83563.3517118164
83547.4803291673
83526.716517304
83510.0399933488
83513.9200353715
83488.7971174119
83478.6445637063
83484.574731488
83491.2680658445
83495.8400102188
83494.6862925321
83495.4498038014
83497.0274476922
83497.1041997753
83496.7121486711
83498.043939679
83497.8860587472
83499.8015701447
83500.0397734408
83498.3696151918
83498.8732002487
83501.9727103215
83502.1610077241
83508.9232716412
83507.8957018702
83516.3270295382
83515.9137131287
83524.538229374
83525.5704503294
83533.5307881227
83532.7362122833
83540.6547518759
83541.1295028943
83535.6381949434
83535.0390467971
83541.2835858276
83541.7870511793
83536.7719736145
83535.949495301
83533.6750051932
83536.6589236313
83535.4476778416
83533.3246946258
83523.3984654543
83532.8009097262
83533.1714654885
83537.142917606
83552.8249840125
83536.3311397791
83537.302032684
83547.1633416627
83544.4446879507
83539.5650872607
83539.3546985046
83541.4721388278
83538.7040985381
83538.3973321518
83537.3898847451
83536.7628855489
83536.0128798101
83535.7563104993
83532.2314812716
83530.9400161556
83529.5742422201
83528.4512190306
83527.0853178148
83528.4159223696
83529.0892227438
83526.9127625722
83524.3519362063
83531.4367104177
83515.2293572189
83519.4288721761
83518.3251856618
83508.0175894249
83548.7453976167
83512.9784786677
83505.9640263565
83501.9731562252
83499.035813849
83496.9718417098
83490.6689359938
83488.659255358
83477.4340682927
83487.4551767982
83499.5522033001
83507.0040239169
83524.4999981101
83503.6496669153
83494.820020798
83510.3393817943
83498.9058596189
83495.4969670703
83496.9007814941
83498.0356485604
83501.2007313782
83499.4087933233
83492.8812333792
83490.6996333779
83492.8879902546
83492.4124714124
83492.8595334554
83491.3041525696
83492.3102751182
83492.8440041235
83495.1083196737
83503.0488121914
83490.2910207317
83488.7507981635
83498.3023327398
83492.7807952424
83490.5810139671
83491.1246900698
83491.7592106743
83493.2403458141
83492.9058887132
83495.2454646914
83495.4533570728
83497.5937922766
83497.6817841744
83498.2554758683
83498.1796575627
83498.6001238339
83498.5182874223
83496.1818092174
83496.3619336902
83496.4972831369
83496.3237872839
83496.4819254518
83496.657195758
83496.7711228113
83496.6462153329
83496.6777348027
83497.0388547057
83498.2649800686
83498.0805604798
83503.2595729498
83503.1169852156
83511.0950777174
83511.831372134
83518.157714941
83518.3982826626
83517.1436921205
83516.8288129371
83525.0225279558
83525.596073862
83535.2144346966
83534.6173918748
83541.6571758051
83541.9450598845
83549.740437843
83549.2002458587
83554.2111798046
83554.7884874099
83549.8754503771
83549.1553508464
83552.523406311
83553.7471351649
83549.6337002168
83548.590079071
83543.2540864746
83543.1172558979
83541.3274253576
83541.8792682272
83541.5280536265
83541.0580968557
83543.8952446049
83543.8400616374
83538.7772043453
83535.3721323702
83538.8318992883
83539.8754226377
83542.6417252385
83541.2587596776
83538.3584319822
83541.5373189696
83538.9196581779
83538.7580564513
83530.9294606165
83537.2499037769
83542.1560678861
83538.9848002701
83530.9120681527
83518.352200464
83504.6002931615
83489.2620051206
83481.5854902508
83473.3687387682
83476.7349031285
83472.0574646297
83479.5268663018
83491.9348514093
83506.3332304158
83502.3238000599
83493.1159747276
83496.7486147496
83493.6072835217
83505.5522131873
83503.0370919862
83497.3590966894
83484.4533381223
83488.8412901634
83494.2423984812
83492.779531648
83490.9860571386
83491.3926573754
83492.1457315726
83491.9432357822
83492.360844854
83491.3688179324
83491.5873331312
83490.3724917604
83490.8397108177
83484.0179878394
83491.6517476055
83489.4673216222
83487.7031529833
83489.779638595
83490.2473999713
83489.1466627305
83489.1289557528
83491.1126728287
83491.1475318977
83493.2488481057
83493.3121179953
83495.3602292885
83495.1489151335
83493.1560771619
83493.3105553724
83494.450006237
83494.6641227969
83494.4954987258
83494.3030122416
83493.1652091319
83493.2096470882
83492.9421520553
83492.8273649044
83491.418390182
83491.7101397251
83494.9451152806
83494.7304879226
83496.3697640874
83496.5987762824
83501.2962797899
83501.4534338187
83511.0848328335
83510.1569398973
83518.0355101801
83517.8044538438
83518.6256784891
83518.8639434882
83529.3800813005
83529.0289502721
83527.5007810889
83527.8545073027
83539.334476993
83538.7965768104
83548.6869941781
83549.3324567503
83546.127818738
83545.4890076455
83553.4877794914
83553.8317215417
83561.2725025655
83561.0271357541
83568.9544236204
83569.1333921837
83562.5631260254
83561.969271541
83567.3908446678
83567.7920799573
83560.5243470088
83559.8550294186
83564.7027652999
83564.609660516
83557.3290012795
83557.4321954305
83550.9746984659
83551.4265898542
83546.3917854383
83545.8345826834
83548.3567847047
83548.7123427979
83545.8400971313
83545.504680534
83546.7644082907
83546.8201497806
83544.3270752427
83543.7909162838
83541.6181663921
83543.6494495266
83545.4555494926
83554.2366513491
83544.7746748817
83543.4412732608
83544.8024197747
83543.637496969
83543.8823635697
83545.0181705992
83540.4089689102
83538.19497723
83529.3357402783
83537.7569339126
83542.7515509005
83543.0761399845
83542.1428617514
83542.4486560256
83545.5637644368
83541.5860465307
83537.5619049777
83532.790192147
83535.2040316381
83536.4081093766
83533.3622170471
83531.320608776
83533.5328127007
83536.9799310563
83540.0286351777
83540.5521781757
83530.4009672135
83540.094677298
83534.1700055803
83530.7189194248
83531.1644081782
83529.7946555437
83519.5603870462
83520.104597752
83521.9786135392
83521.0987484045
83522.9216521784
83526.623084952
83519.5805982793
83516.6163197049
83520.9364589634
83526.7924861198
83514.183060595
83517.0352584482
83515.87775414
83521.5339989176
83523.7515701394
83515.0013229045
83514.8609790056
83529.6255644917
83515.215185167
83509.364715168
83504.4901451155
83513.4141722737
83503.0245575468
83496.9541114187
83485.4802714601
83482.9050514003
83480.2490504317
83479.8605650204
83467.2947364227
83463.2361808187
83442.6517737938
83456.1088179674
83438.4700364336
83432.3942366952
83468.3840445078
83468.4977757698
83480.9068569759
83475.5621484526
83493.0878930105
83489.7689682902
83491.2380413114
83492.2886422192
83488.8399220922
83488.3946607343
83490.8757489768
83491.8798842
83489.0292765845
83488.8629903243
83488.7278531746
83488.4304332581
83484.3890836589
83488.2253532467
83487.4646197184
83486.9053326833
83484.9980664431
83485.3288643324
83484.9356538839
83481.6222077356
83487.1853689787
83487.335011957
83486.1926708417
83486.8164643412
83477.2130154764
83482.3135689776
83483.1907527545
83482.3923321993
83485.2827228244
83485.4835471411
83487.2027904755
83487.1455824818
83488.9622829414
83489.0140531237
83491.133627897
83491.1624558334
83488.6765911358
83489.0225510391
83491.8403421598
83491.6368634035
83492.990282725
83493.3596419701
83494.38017083
83493.6701723169
83492.9717634378
83494.3579412859
83488.9167008738
83489.1599856486
83488.2820280507
83486.6042273773
83491.4880304161
83492.0643746778
83495.9308260432
83496.1909006276
83506.1999737715
83505.6534116679
83511.7159445318
83511.3693493602
83515.6323513351
83515.8682961072
83526.1924859703
83525.6802533398
83528.3120195053
83528.7415395343
83542.9865154515
83542.5718728654
83542.4235629003
83542.9971711294
83556.7419613929
83556.2316534954
83553.4483399243
83554.0519405717
83564.3594234255
83564.0061211634
83558.7915955288
83559.0987277203
83568.4229121572
83568.223233747
83577.5412547001
83577.6290314797
83587.2443394996
83587.3232377212
83576.6665868756
83576.6825718698
83584.3665939447
83584.6063590054
83574.0807171888
83573.7717252479
83579.6552445735
83579.9943530469
83569.2825184521
83568.7830215534
83560.8772736687
83561.2034482722
83553.9131188748
83553.8594087507
83555.9012534835
83556.00886922
83549.2178002658
83549.5514597669
83549.0173645657
83549.2392000457
83545.8005671157
83545.9415177282
83547.0543911505
83546.376155568
83544.5377046455
83545.9782613909
83545.2573482109
83545.2766404502
83544.6747469598
83543.9470021638
83542.9821233829
83543.421064463
83540.9275981377
83541.4455749993
83546.4145596211
83543.1789626179
83540.4812409144
83543.4745774825
83540.5992299564
83537.4459336796
83531.2389665345
83533.5980124148
83523.2316397349
83529.6352404071
83523.5969406623
83520.0289238486
83515.0635796862
83514.6746220612
83502.3420202363
83503.0265360809
83509.7384948027
83508.8850393177
83512.2887702173
83512.9699534015
83504.7442380096
83503.8669123744
83509.08134926
83511.6215479919
83518.3487174597
83514.362929338
83505.1109533711
83505.2354596544
83502.9725869645
83500.2295801392
83492.9220387304
83492.9537275104
83487.5775947901
83487.569784914
83478.1055671869
83477.110636678
83466.8102952836
83466.6193967057
83454.8086569208
83457.2466256363
83450.2983961535
83447.1609161897
83429.1870100933
83425.4112195185
83429.2525841451
83420.6514648248
83407.4714308984
83408.4612130381
83384.7159862535
83385.4239873495
83428.6368968253
83428.3515353593
83458.5365570442
83459.656297801
83474.2188926782
83471.8045973219
83482.6950785992
83483.2477415273
83480.0836865686
83478.7760107113
83485.401468281
83485.7795990377
83483.6066261637
83483.1228031755
83487.9315386055
83487.2822999569
83486.0767671305
83487.2406910998
83483.6796232943
83484.397284491
83483.3192466969
83480.5347844294
83479.722692231
83482.9684755195
83482.9119765531
83481.2105540544
83481.0505560067
83490.4821462542
83486.6848600531
83484.6448613769
83487.6129950988
83488.5863897945
83490.778507321
83489.0548182094
83487.2034086576
83488.0049363267
83502.4604555849
83492.8813907839
83504.1343941665
83533.2468287063
83538.5815070356
83497.7967309952
83473.7688067291
83447.5416366304
83460.9494658213
83478.353293489
83482.1408239927
83478.7009632799
83475.437351176
83468.7112130804
83479.6557411806
83482.9412192694
83484.858693339
83481.0273222392
83463.9147632353
83476.8964722453
83476.7333062703
83461.2781220111
83485.8880027955
83486.7799598239
83488.2978163459
83487.118842577
83485.8146473991
83487.7070006482
83488.6570989365
83486.0622931664
83490.0642233533
83490.9950311712
83490.5611088966
83490.324187025
83494.1261433812
83494.4579841322
83501.0251829578
83500.1336633298
83506.9907946116
83507.5053517388
83515.9819395414
83515.0044380577
83519.8781676298
83520.6340937675
83532.0075146164
83531.2507237745
83539.481603912
83539.8594826037
83560.6135769465
83560.7244670218
83564.76976478
83564.7454875674
83558.8911462795
83558.569524217
83571.5244841749
83572.0867239645
83568.5954222025
83568.2915866368
83580.9760031938
83581.0811291173
83575.0838774968
83574.8727289429
83586.3071346801
83586.3156262012
83598.1751405834
83598.5431772161
83611.1615887251
83610.3771234756
83596.9895543098
83597.3837266702
83606.6716870975
83606.3956588453
83591.5973722608
83591.7906064145
83592.439754124
83591.9374847045
83593.8100610975
83593.8913368167
83587.1703744084
83587.2109663242
83581.0163627119
83581.0813037403
83575.345367152
83575.337387755
83570.4957902309
83570.5800922828
83566.6406400689
83566.5523655692
83562.8421063292
83562.912201006
83559.8473125754
83559.5617214167
83559.9605523905
83560.6305648503
83566.952391917
83566.4152720573
83569.2809173947
83569.8729877678
83575.7104266271
83575.2011895417
83579.7153722946
83580.2658896252
83587.7434985449
83587.4594665215
83587.4849082322
83584.4901995701
83591.3086687004
83591.6117593587
83589.8531496032
83588.9090831346
83588.3009028463
83587.0083155575
83582.4545599088
83570.2290675541
83556.6729323994
83532.4356814925
83522.3555313719
83494.4471901844
83463.533541005
83449.6367946643
83428.2504397668
83422.0042611242
83413.8965437236
83414.0408644482
83448.5901823116
83450.9369289911
83470.0819070513
83467.4955952122
83463.3516819208
83465.7557513051
83477.092717464
83475.701887444
83474.9186236589
83475.472331873
83481.7949888449
83481.692598306
83481.2466378596
83480.8471369867
83481.3103620648
83476.3953305274
83475.5060898142
83481.8930770633
83484.2298795913
83485.2021775961
83451.7463033468
83476.5061328446
83488.9062577938
83474.0184326945
83462.6201801325
83491.8157064565
83498.7775876487
83483.8166927168
83521.068040754
83507.2193192756
83504.8813184459
83506.5156593012
83505.1052696937
83505.7169718382
83476.6566819294
83494.024475397
83494.8135862555
83483.589534074
83528.8220512365
83523.0440055654
83514.9797713162
83514.4597604784
83508.5922764485
83509.3001314162
83513.2772152751
83512.4041016047
83523.2862216534
83523.8823606319
83533.5015301841
83533.2751905663
83539.1277686899
83539.3379801429
83548.4183229956
83548.0207926416
83557.4348244613
83557.5002419528
83570.5185852626
83570.7380229813
83581.4904327168
83581.3944202744
83588.0802713045
83588.0194850346
83589.9532550411
83590.2175452799
83590.459378489
83589.9565346205
83585.7233546326
83586.0139446321
83602.4089551853
83602.529219755
83595.1879731684
83595.0186115102
83609.7833884865
83610.37642348
83626.0057430101
83624.8989712538
83639.7481516142
83640.2863960544
83622.5536168869
83622.173921347
83623.1826956904
83623.5599014538
83626.3477062802
83626.3495916509
83616.8449789938
83616.7927777696
83608.8825311401
83608.8730978
83600.3972488254
83600.3929363835
83602.5235231182
83602.5385092027
83596.0730548158
83596.1124499747
83588.3063858388
83588.4578268303
83582.6167957452
83582.6002768121
83576.1936292614
83576.397462113
83571.7413186988
83571.6667169641
83567.1341576536
83567.287586515
83563.823302409
83563.8592798092
83561.6624475748
83561.1724276361
83560.0718235305
83560.5205492695
83554.9323610689
83554.7636022319
83554.9431854367
83554.8947751328
83550.1061849333
83550.4316993231
83551.046375353
83550.7325686988
83546.4498918279
83547.2470130932
83546.0653735489
83545.2240765148
83541.7233499911
83540.456400187
83542.0848768752
83543.1310325451
83541.878959376
83540.8791884773
83539.3498382358
83540.5995258632
83537.7726400306
83536.9400095605
83537.9916229795
83538.6879907578
83534.7157699268
83533.9353128872
83529.9178723587
83530.6633034319
83533.3430582527
83533.7364288567
83524.9723441248
83526.7174360787
83517.6994839948
83509.0330242315
83525.4802170525
83524.1459886103
83528.7604942785
83522.1974137499
83506.5532896566
83491.1798972563
83490.4799417446
83490.6707060182
83499.8666678838
83498.6683493134
83486.7379659189
83486.8959405877
83494.9327659131
83494.4109342614
83499.5002780571
83499.9292279555
83499.5153888633
83496.1505156061
83489.2536467534
83485.6666491296
83457.0425797901
83439.0240533876
83393.1662042162
83390.8691428071
83402.5038472614
83356.7066990207
83353.9958598729
83331.9467458474
83328.0874916069
83324.4500476121
83329.1658056815
83361.0002031328
83356.0461161408
83338.6771545022
83342.9720376764
83400.6230652513
83401.8161236736
83440.5050528389
83441.881840036
83433.0548939618
83431.1144139107
83466.7432113883
83465.0805772857
83470.5654382111
83469.9889192794
83487.1936785785
83475.1187236929
83476.0464789266
83477.2574174562
83487.7530891264
83479.9609876118
83482.8393564602
83483.8807631876
83467.0035360781
83481.0209087906
83487.4077205783
83481.9488136835
83526.4683231109
83496.5299841404
83500.4249223406
83493.1987570049
83532.5177750666
83517.2740436243
83523.7204284007
83550.3163495931
83544.4788041018
83520.0591996036
83512.625691413
83524.7358405832
83516.2071256388
83515.9946629913
83512.1487403153
83511.7056265997
83505.8786463525
83506.6788617814
83506.4596637432
83505.0990261647
83507.556613264
83504.1949745449
83500.1142915209
83501.7845024164
83503.424867679
83503.6352588721
83502.7540630962
83502.404819904
83503.3665740413
83504.2355288807
83506.7086516508
83505.6210604938
83507.7164986826
83508.5101306264
83518.4913523716
83517.9129573583
83525.5483809943
83526.0512827097
83528.8723522265
83528.6620068894
83538.468222057
83538.6197125822
83548.627397207
83548.6249257979
83558.8107847331
83558.5084616782
83569.2375553392
83569.8569527076
83585.4185240406
83584.8245097533
83599.4824174275
83599.8100614279
83607.7967136315
83607.690924069
83610.6835898729
83610.658839767
83609.3034366625
83609.3896871512
83628.5328941956
83629.7968290338
83620.580272058
83619.6016336223
83637.5977010785
83639.3664825528
83656.5691681624
83655.5322734059
83659.9652761105
83660.5342778654
83665.1865057448
83665.1911571664
83654.2870911224
83654.2239460192
83645.2595485995
83645.2357055964
83634.5484275588
83634.4147156867
83637.1520205968
83636.9935715866
83629.1481128919
83629.4047937332
83618.8643919029
83618.8051835632
83611.4543436337
83611.5600132205
83611.9898290418
83611.8520641734
83603.4645655155
83603.4153795082
83596.84400984
83596.8547051423
83589.5665611671
83589.4510630934
83583.5664091497
83583.5951101408
83577.4845165579
83577.319395764
83572.4035691212
83572.5185202952
83567.8534364314
83567.6640379298
83563.823701537
83563.6396853046
83563.9044371723
83563.9721237993
83561.1641432322
83560.8021811346
83560.1021292526
83560.2486421063
83560.9727889474
83560.6878624504
83559.8809478054
83559.9600355949
83555.0504126686
83555.0630282589
83553.9774041562
83554.0478178389
83549.6797031419
83550.0185569925
83548.5325918868
83548.2395730596
83543.8591530963
83544.646059648
83543.1074131958
83542.3471145654
83539.3739258871
83538.3521339697
83539.6881980603
83540.5710841493
83538.5153326459
83537.2947550797
83536.4429045942
83537.7218886693
83534.727388593
83535.5132310097
83534.2244622573
83533.382895084
83531.0665559951
83531.3283166461
83534.5699471102
83534.3531932819
83536.2914103909
83536.7403428559
83533.0672712328
83533.1240676985
83531.532927991
83530.7742353312
83530.9697682806
83530.5389868834
83525.2725285677
83525.6771928349
83525.3668934629
83524.2110105059
83518.1767057353
83520.5458337659
83506.5998717903
83495.540974785
83488.5002818598
83494.2487988119
83479.5573771276
83478.6588034734
83462.3682704497
83462.7462755064
83476.465044264
83476.7883039263
83474.1440691742
83467.7821893311
83453.7433321213
83445.8287212912
83440.4163666145
83411.1363005228
83390.17069609
83358.448165814
83308.5467827636
83318.4762551787
83326.2151005553
83321.5642053827
83312.2895205266
83301.8603401401
83303.3470458613
83287.9074914524
83292.2631122298
83312.7070368284
83314.9658231037
83348.4111993533
83341.9216724954
83380.5159374227
83375.034044962
83382.7805630863
83388.8841512577
83386.2735918695
83382.963874912
83417.1876824501
83416.0170001305
83435.2731208681
83431.4262937248
83461.3572739585
83458.4821389098
83458.1388916663
83460.1532153221
83465.6025815604
83461.686081435
83463.0542898319
83464.9606192103
83485.0864127828
83479.8281210428
83488.4198260543
83498.9516279931
83492.3641714809
83485.4906455294
83487.3829828477
83489.8898769495
83487.3018869383
83490.7483471102
83494.7591635398
83490.9351058513
83513.6662176168
83505.3157008433
83513.7787929824
83531.8804080732
83507.8295541267
83504.7788629357
83500.2246735811
83509.5154463686
83502.0655927531
83497.6364378802
83490.207399325
83488.0888812278
83495.0129659964
83494.2511364546
83497.4645130317
83498.3440011745
83497.8495743559
83497.3210728649
83489.7813898778
83490.8481276944
83493.1545539523
83491.9892926087
83498.9950742102
83499.9237584828
83508.026825792
83507.5247528054
83518.3039539297
83518.8779410824
83531.6731876048
83531.5382967894
83544.6873295733
83544.6988481663
83551.1706097854
83551.3031160889
83557.3795770947
83556.9206694395
83580.256626786
83581.3891129648
83601.3440390668
83599.8544496401
83617.9793548151
83619.6949400578
83629.430652102
83627.7214145267
83631.0720067345
83632.5938738191
83655.3045384416
83652.4788572453
83648.5575813013
83650.895871103
83670.3368792391
83668.7528820565
83674.9060995241
83675.6538275582
83681.19887441
83681.1119556892
83672.0058737197
83671.9243896134
83674.2913081013
83673.4880865607
83667.8556485992
83668.6696719187
83656.6061431815
83656.2284876512
83648.3721300645
83648.8354796558
83648.0746148722
83647.3808812317
83636.7820550242
83637.1929437312
83629.311394955
83628.9473073694
83619.2975622699
83619.4445445039
83617.6079026774
83617.4168423987
83610.2930715408
83610.4957231486
83602.7761965434
83602.7573990404
83596.3014644977
83596.3571110283
83589.6707182573
83589.6813149348
83583.7396170776
83583.783171042
83577.9440135621
83577.9812178219
83572.7904234778
83572.7643880553
83567.8815968353
83568.0970710205
83568.057550055
83567.8870857927
83563.8543058709
83563.717246112
83563.7451556216
83563.7684183512
83563.3454836715
83563.2389954746
83562.9205937054
83562.9255346065
83560.289471263
83559.9991184448
83558.8577189666
83558.911086918
83558.9186657648
83558.6190231257
83557.3319363701
83557.3768009668
83552.6170990687
83552.4779437538
83550.7285401174
83550.8666015562
83546.6180278526
83546.9186636942
83544.8436250932
83544.5830923747
83540.2979902747
83541.0071691417
83538.1375724634
83537.4812703736
83533.7008285652
83534.3215701517
83531.5532601529
83530.7366404291
83529.2739977907
83530.2095185515
83527.2183021312
83526.7496195282
83522.7373725134
83522.5534962673
83519.1504971778
83519.426207357
83523.3170228033
83523.2486418337
83527.3860818525
83527.857128567
83522.6563349841
83521.5791786164
83525.6718736744
83528.4642277558
83524.8586553859
83520.9749030942
83516.2686809711
83517.6120847254
83540.2751829125
83526.7820228556
83520.569917278
83511.0832070167
83532.2080847923
83524.5766236771
83521.2554919296
83515.3844834612
83520.4228224495
83528.2227003385
83516.0755273668
83517.1752553626
83509.7063597273
83518.5507437527
83506.383605851
83500.4025087413
83486.0238418132
83484.754207089
83483.1980698746
83479.2934188062
83466.0180104433
83462.860066799
83446.5043940659
83447.2349066437
83435.9380881123
83436.1385639642
83450.5616825874
83451.834042744
83436.7247193684
83432.1506800553
83433.1607039257
83427.1351005933
83406.9834935056
83410.9872804393
83406.1180043074
83400.4374398742
83369.0598485928
83367.3572094309
83346.3180645536
83345.9813539449
83332.9806645921
83328.4974608628
83303.3635641624
83310.0654661106
83308.4545552479
83307.2497952883
83325.4474267889
83302.8694713971
83295.2813130541
83308.0894286556
83324.4225475408
83309.9797935957
83300.9069356269
83311.0166813512
83301.9447383889
83293.5145018004
83288.7538244222
83300.1942285619
83291.6158477305
83281.6432623765
83273.1493031946
83279.2695266269
83291.8201863215
83286.0933108946
83312.7548361852
83322.3617133216
83320.8164784717
83329.9186745319
83326.9468471908
83317.1806705187
83316.0296070166
83316.9249013227
83353.9504577703
83354.1808904792
83347.536882017
83347.8542219717
83341.2976132495
83341.0139982831
83334.3976644059
83334.4456575603
83380.4165117188
83379.4795018113
83414.7444674256
83415.885619074
83442.2513769266
83441.9633449038
83444.9234043612
83445.1950059978
83452.9988177958
83453.5058532557
83459.7674977356
83459.8136724793
83468.2269644154
83469.1059170408
83474.097928207
83473.5509973626
83482.2987447563
83485.1286528003
83484.0611220032
83485.565620251
83488.5028881795
83487.2066935437
83478.1742017555
83479.8641868232
83483.8805845173
83485.3797164851
83482.3731175719
83480.9505695409
83467.9136908966
83469.6979546046
83473.2747989821
83471.5243524533
83481.8528705932
83482.9726634604
83496.6806834404
83495.9596827346
83513.7862341487
83514.0561725408
83535.0777462535
83535.185192221
83532.8878899042
83532.6113525405
83560.0975107758
83560.8535759318
83591.2217203751
83589.820785037
83614.495490545
83616.4986464674
83639.4666938512
83636.7795557188
83648.8819866859
83651.829441583
83672.130051953
83669.8990117769
83674.1814989095
83676.2166683448
83685.7240391956
83684.8612507488
83689.3516625557
83689.7515377105
83685.6009093391
83685.378443764
83684.2991967988
83685.8353575341
83683.8757007237
83682.4993875423
83676.2056904202
83678.1108379284
83671.3954669968
83669.9617153215
83665.3913317974
83666.5456228742
83655.9141843429
83655.0785868575
83649.2833364874
83650.0615571137
83642.9341032469
83642.2850594284
83633.1570905377
83633.5702776289
83626.1580414832
83625.8088516831
83620.5373638
83620.9040233316
83613.8307420067
83613.5895961733
83607.3963383172
83607.6127674673
83600.945571465
83600.8412803977
83594.9133910541
83595.0058245494
83588.9248051838
83588.8989956324
83583.2252708072
83583.2645554402
83577.8256175065
83577.8387967129
83572.7349756846
83572.7064551163
83572.2959660924
83572.3490958285
83567.8230471126
83567.628642585
83567.1793716818
83567.319246117
83566.659489511
83566.4946391882
83565.6374563937
83565.7321006417
83562.0740885446
83562.1596618889
83561.4209553069
83561.4129562477
83560.3400039023
83560.4301380534
83559.4912548132
83559.479492328
83556.8562715149
83557.1288958527
83555.5064003211
83555.4708594156
83554.860263509
83555.1436171811
83553.488730216
83553.4201890977
83548.7140912763
83548.9929001059
83546.4283821013
83546.0482707801
83542.0359093469
83541.7763345826
83538.0016194263
83538.2219822622
83533.0987896864
83532.9788830533
83528.6933522433
83529.2905335542
83526.4528149044
83525.5940814918
83523.9731296827
83525.0728623226
83522.0126850684
83521.1555447934
83516.8587194355
83517.0076405189
83513.4204540777
83513.9899409755
83512.3368656589
83508.521470248
83514.0841347072
83514.7296847403
83518.0131143791
83517.6827479214
83511.3763373901
83511.4373488772
83506.0621343899
83506.2221799237
83509.1506548404
83508.4226272063
83501.3546755368
83501.7701348831
83508.6001316931
83509.3243978304
83503.8526712318
83502.2216047814
83510.3586780069
83515.4368713086
83503.6151837977
83499.8216560022
83493.1239415699
83498.8903197339
83489.854378228
83486.7100037314
83478.524796377
83489.1512443937
83466.3674383389
83468.1048627633
83452.3030010599
83455.5539541762
83431.0459583969
83429.177768087
83414.6476951055
83416.2908359309
83399.4087639429
83396.6443823215
83420.6822018725
83423.1491625087
83415.6295431749
83402.42436314
83372.9131973113
83379.2499730419
83380.9936509348
83356.8196931781
83354.6721732273
83330.9027648111
83334.1340075948
83324.101761117
83323.4181539346
83306.1286730947
83302.7504729324
83307.5784073495
83301.3574355876
83297.9740843791
83306.3544257933
83288.4626425202
83284.8336211135
83279.0811792248
83280.7537481042
83281.9997405692
83277.0342058079
83286.1618394339
83292.0382311991
83286.3920820442
83280.6674151466
83277.4783275754
83283.8782616213
83278.8124049927
83272.5571219547
83265.6259227234
83266.8108748601
83261.7128272464
83261.9234239068
83257.079417102
83256.9385254199
83263.00692529
83260.4682704211
83264.3657201391
83265.6281735323
83267.7879159317
83260.0230174942
83255.6298163098
83252.1681074437
83286.9114643151
83283.440881543
83270.1932579436
83272.5177498636
83253.332087536
83248.8385797742
83228.5328873415
83233.0660578425
83283.9097145274
83280.555178986
83265.9192983228
83268.7918960672
83250.6937952026
83245.1167054328
83221.1941901167
83230.9568901791
83210.640846199
83199.4928447723
83181.2062475365
83188.975470602
83216.6169656451
83210.6806679135
83207.7645222326
83209.7194856595
83207.3998285473
83206.1701786684
83206.3835548737
83207.1413387412
83207.8550137156
83207.1726036555
83278.9706869701
83280.4541366128
83281.2859859907
83279.9158803562
83283.2152757091
83283.5887818451
83308.7380566033
83309.7263172982
83315.6262559685
83315.0847045062
83324.9498117885
83325.0862588054
83338.1890273942
83337.9257328875
83355.0191735051
83355.3408941398
83376.7661971581
83375.8814008009
83398.8487065399
83400.0196591772
83425.4367358488
83423.8693923331
83447.1657677719
83448.8777817074
83471.5554346457
83469.5617975864
83487.4223227653
83489.4415081229
83505.4969353396
83503.4691457179
83514.9474795125
83516.7406165651
83527.7021126886
83526.2138983263
83534.1528695497
83535.137455621
83546.0477234341
83545.6369704521
83558.6839010037
83558.6653047017
83577.2387834165
83577.2526886736
83601.9194966144
83602.3828441303
83624.7482530294
83623.7132972791
83641.0708959701
83642.2301918559
83646.44472284
83645.3509622777
83645.2285216997
83646.1072070631
83639.9775178157
83639.2438891212
83633.8830570758
83634.5016173531
83627.0691362301