/*--------------------------------*- C++ -*----------------------------------*\
| =========                 |                                                 |
| \\      /  F ield         | OpenFOAM: The Open Source CFD Toolbox           |
|  \\    /   O peration     | Version:  2312                                  |
|   \\  /    A nd           | Website:  www.openfoam.com                      |
|    \\/     M anipulation  |                                                 |
\*---------------------------------------------------------------------------*/
FoamFile
{
    version     2.0;
    format      ascii;
    arch        "LSB;label=32;scalar=64";
    class       volScalarField;
    location    "600";
    object      nut;
}
// * * * * * * * * * * * * * * * * * * * * * * * * * * * * * * * * * * * * * //

dimensions      [0 2 -1 0 0 0 0];

internalField   nonuniform List<scalar> 
162506
(
0.00149791397605177
0.00155231637579313
0.000102987384476076
7.88007317480207e-05
3.92611538861961e-05
9.52642494940017e-05
0.00046021595000415
0.000530891402023915
9.31985842938394e-05
6.3452669638018e-05
6.9589629886778e-05
0.000885915036865201
0.000936989429594813
0.0013018810740177
0.00293171362840278
0.00332122381919217
8.95290104799911e-05
9.28913363143069e-05
0.00132951785699673
0.000677638431980069
0.000910836387268644
7.98738779508948e-05
8.51391339531433e-05
3.87257680387269e-05
4.36014870073009e-05
6.12591016117078e-05
5.67986053512471e-05
0.00570460403317763
0.000106154917876181
9.82012914736614e-05
0.00813408174891902
0.00772229100044047
0.00496189238510601
0.0104498449087106
0.0150001158991055
0.0149413138550525
0.00010060392007174
0.000109813341851832
0.0106576598688364
0.00846599361130181
0.000113129820444216
0.000110713495116119
0.00510603377259732
0.00458258285736374
0.000110747651086695
0.000110631129527534
0.00324944382672297
0.000815492718168849
8.70919355675564e-05
4.5325776860158e-05
8.5177332548852e-05
9.13396698659539e-05
5.00794516148988e-05
9.64909363802875e-05
0.00116116313874737
0.00128202752240874
0.000101217767817244
9.79041469368729e-05
0.000863661844843873
0.00214230846876941
8.25010917218626e-05
8.17068868016112e-05
0.000955052807297573
0.000819815718208585
0.00228430625004391
8.06792274056196e-05
9.25366609363182e-05
0.000109623629729453
9.78212082789313e-05
0.00434978983571433
0.0028351561733585
0.00418232985166373
0.00593883297779958
0.00352947808074276
0.00247430757633545
0.00192488860880416
0.00167941361593145
0.00334054348546444
0.00298449707142466
0.000102682935883651
0.000113684921338648
0.00530387034211377
0.00507073106124667
0.00827126402105335
0.000102931552061646
0.000112842930185363
9.99221729047121e-05
9.02208290280875e-05
0.0101059904878451
0.00566230110740409
0.0131093161526057
0.00962133642168037
0.0145322418111574
0.0125347725040793
0.00871251338897558
0.0116647253261026
0.0150003105601349
0.0150014782234538
0.015001693798943
0.0150004403277568
0.0150003375444851
0.0103862300059639
0.0109435839442361
0.00010977411117862
0.00010068786921432
0.0149430623463302
0.0073194456079289
9.82866254540838e-05
0.000107008792202738
0.00569915694373487
0.00570652633117742
0.000110705241418636
0.000113663952248601
0.0093135279808239
0.008037238348139
0.000111182833754488
0.000110077225332296
0.00788206230652639
0.00485655178997044
0.000110956960286301
0.000110720598540456
0.00380602925411999
0.00334357755905813
0.000115616903781141
0.000112466810475858
0.00230416743495181
0.001125901609942
9.70029267876828e-05
5.417285463059e-05
9.42759345134861e-05
8.7679296335036e-05
4.83553746312469e-05
7.64259791411398e-05
0.000744269074618886
0.000702791269939492
0.000112256981664798
9.67092465900411e-05
0.00131424346031609
0.0021953262745091
9.34320675598169e-05
8.75990934291846e-05
0.00271984259241495
0.00373705096249949
0.000107806414759971
0.000106072899306969
0.00351646549600901
0.00824549225308979
0.000106406273853642
9.81120179095943e-05
0.0048010565773936
0.00692050453405193
0.000104860826564702
0.000102389168090654
0.00802706390416651
0.00709564150509607
0.0110149848365249
8.65933286237924e-05
9.60093321141162e-05
0.000105912784561678
9.42711005386442e-05
0.0149278963305885
0.00818243622220593
0.0150011148576464
0.015000700327956
0.0150003449556504
0.0150008109488301
0.0150010928445457
0.0150004689605448
0.0134265440699845
0.0142004108463252
0.00869048351688398
0.0104568736412446
0.0070390327714355
0.00489612241072545
0.00126316701883517
0.00278946341008568
0.00312930742871596
9.01385718790586e-05
9.62965136036215e-05
0.00143539933935942
0.00168868237780663
0.000103017274157639
0.000110804518978151
0.00318627387154454
0.00532072412013746
0.000110969432199217
0.000111897258851606
0.00415780301347168
0.00515657852828183
0.000110580499562582
0.00010816999331319
0.0027619548833481
0.00275047868538778
0.00010527060536696
0.00010859449101262
0.00251899042065179
0.00135815755350235
8.98324073424711e-05
9.46433573632141e-05
0.00138331116613001
0.000725973695465533
8.71460244655115e-05
8.64050167290977e-05
0.000720550269909741
0.000611274695087315
8.03580106615867e-05
7.61471900954654e-05
0.000697507962558349
0.000640530315617287
7.77312521691302e-05
7.31239257685622e-05
0.000815398067889976
0.000588087740808598
5.39909897217388e-05
5.21287725914712e-05
0.000510137629640588
0.00061822296276791
6.46505498967887e-05
5.75204799781896e-05
3.32096972650325e-05
6.77567426328595e-05
0.000603893718387772
0.000540339800954557
7.23283419322713e-05
7.24072674732049e-05
0.000492182581971741
0.000480879767353595
6.02975498201441e-05
3.58926417221704e-05
6.82104527162183e-05
7.44013495915765e-05
0.000383981299233576
7.05455550028634e-05
3.37078213890988e-05
3.50663813979834e-05
7.43906156453668e-05
0.000503979484595147
8.75694294271655e-05
8.46198710285334e-05
0.000561184070520409
0.000969077761655627
8.65223012148517e-05
8.63011033951359e-05
0.001530776362579
0.00208117807711189
0.000110615020228396
0.000109306758057602
0.002939242623328
0.00432622993497111
0.000111646028538863
0.00010722702065806
0.00702922928311503
0.00436781255195313
9.51571695201242e-05
9.55662634238703e-05
0.00442217555463742
0.00496043699781432
9.77716401229943e-05
0.000115482056136159
0.00894252536399532
0.0113981328937698
0.000114554787687294
0.000113471135342214
0.0112428273332159
0.00701950872666579
0.000106435040427034
9.44094032967102e-05
0.0149281214539909
0.0147858880561033
0.0132769218947087
0.00587759116802187
0.0116690784656813
0.0094139299640312
0.0122216887682914
9.55657839148556e-05
8.70039278684641e-05
9.01436134252671e-05
0.0146885753510612
0.00536377370972507
9.95849600877227e-05
0.000103669215309784
0.0067129531857195
0.00564427819879384
0.000113321775443236
0.00010279852567192
0.00279465066307542
0.00295199767286126
0.00412977193481468
9.71562101926086e-05
0.000110734749444881
0.00011300506287803
0.000102844325602804
0.00766045750418038
0.00509340228397942
9.10190680298066e-05
0.00083131519540163
0.00235090536661218
8.1404087839778e-05
7.01137695113878e-05
0.000880446754545748
0.00101905964088879
6.37793404462199e-05
9.47446866489817e-05
0.000531941411188808
0.000455045952525706
7.79975344172084e-05
4.00560465217071e-05
9.87572517734095e-05
5.9952804067698e-05
6.40393561901496e-05
0.000927472869923813
0.000680674935933162
8.46163736930146e-05
8.28994399249671e-05
4.37521320730898e-05
3.9521508107928e-05
8.37548513951398e-05
4.57509476277542e-05
8.63678601126591e-05
0.000777689753253298
0.000875632271632013
9.75009710274913e-05
0.000103776627978826
0.00128200141512855
0.00117338057051663
9.25375943533812e-05
5.03681079426343e-05
9.53899213421189e-05
9.6841253379125e-05
5.3808651665597e-05
9.33018635242303e-05
0.001151497966291
0.00236261144576222
0.000113798450457364
0.00010688954019984
0.00267067884553279
0.00135417327556232
9.44120952843147e-05
9.52145980373188e-05
0.00128816696183826
0.001350413719648
9.68175935932322e-05
6.47638469055135e-05
0.000713158746995246
0.00042268954023629
5.1939591711291e-05
4.29910014493924e-05
0.000288996514108753
0.000373932163686752
4.75821432956108e-05
4.21666180234301e-05
0.000287940524346047
0.000385652554604183
4.75402763742887e-05
5.37142491777122e-05
0.000513931121016047
0.000622895619224703
6.2138383714413e-05
3.35218189159506e-05
5.22934032144455e-05
5.30158913383842e-05
3.83017575561995e-05
6.54480038900309e-05
0.000391868603099068
0.000488524882083472
6.66022924586388e-05
6.29113307116145e-05
0.000864698292790369
0.000419051839645405
5.64742745685811e-05
5.08483540663351e-05
0.00038395477327032
0.000313605282013438
5.87185147119672e-05
7.29492518006185e-05
0.000428183379252847
0.000826529582505371
8.04518601210899e-05
0.000110107136173406
0.000836658386641113
0.00131644378849976
8.93587807336148e-05
9.55028078068172e-05
0.00156169089447579
0.00262347733838676
0.000113734468440852
9.82809993587605e-05
0.00289807666079124
0.00413466417211356
9.60092480890708e-05
9.65813753566501e-05
0.00413527279031844
0.00489791421692647
0.000115130584203092
0.000114694242979653
0.0079350536028402
0.00792057219632877
0.00011501070225675
0.000114997477270167
0.00894415907618438
0.0049398139053174
9.64756052465342e-05
0.000100261081699029
0.00754385134925649
0.0031996519262116
0.00774598064897371
0.00777224295795261
0.0147374043025958
0.0119561258542
0.010507874155234
0.00879960258636976
0.0115706110263229
0.0134231119345931
0.0110915531845549
0.00476621663450376
9.85267363544543e-05
0.000105250246412659
0.00819973579807246
0.00341716793142956
0.000105877559002503
8.30659341518716e-05
0.00205768869042551
0.00290566682041696
8.69783939219419e-05
9.27773477553217e-05
0.0025616663681976
0.00136872278819197
9.76291676124067e-05
0.000109871570218197
0.000730001534055509
0.00082471816365654
8.52826428145991e-05
4.67740589675398e-05
7.71423525609763e-05
8.44136217596593e-05
3.39686246421015e-05
7.0816375509235e-05
0.000540658556550392
0.000635612930665905
8.54468826055681e-05
8.61080704729365e-05
0.000724624917488289
0.000668569905922274
7.98671298185128e-05
7.5777206336583e-05
0.000586151281707071
0.000545831275517864
7.63910078324193e-05
6.32731667332645e-05
0.000374517925237825
6.72100238228031e-05
3.27115819826798e-05
3.26998968181463e-05
5.57595132638264e-05
0.000389143214453764
6.15298731917413e-05
6.38154552316595e-05
0.000322613391484677
0.000411155191789539
5.4593563097463e-05
5.25694656185528e-05
2.81028963324507e-05
5.04966928889811e-05
0.00042446124008248
0.000489050723433021
5.72613627296975e-05
5.31291739636551e-05
0.000409082165967875
0.000283371121441425
4.34188557184049e-05
4.00517204991869e-05
0.000259945014763913
0.000245984642632253
3.81422784303077e-05
3.92154461087985e-05
0.00025019395791542
0.00018465704614579
3.64207951748257e-05
3.56063370753253e-05
0.00021421412050014
0.000177743380786806
2.968458267158e-05
3.73489846240233e-05
0.000190568429448616
0.000259628906418065
3.74560337199941e-05
4.28553953598828e-05
0.000295379271411153
0.000342746299088336
3.77743093711563e-05
4.47237667628263e-05
0.000325454713201009
0.000277064103997233
4.3301502691926e-05
5.5302885676283e-05
4.28170736293865e-05
7.00663184419344e-05
0.000311965299454276
0.000380606746652798
7.36555859750836e-05
6.74575220402242e-05
0.000448676066333086
0.000507135932715987
6.278411492401e-05
5.64014210593661e-05
0.000444758444011367
0.000432357891041346
7.55751311286943e-05
7.25306884516393e-05
0.000491273045382461
0.000494330680853271
0.00061089200748117
0.00049278720649669
0.000304268822798029
0.000435766258854931
0.000835336864654161
8.29701772307844e-05
6.56637122575794e-05
0.000577809969106593
0.000364044827427689
4.64307436979992e-05
5.111113284304e-05
0.00046155884376972
0.000754141375379766
6.36770500991217e-05
6.79966156018945e-05
0.000474034142984518
0.000390470420458352
6.02720378276228e-05
5.44084178171149e-05
0.000333815886146864
0.000336741325421403
5.50316584283672e-05
5.30525786997799e-05
0.000499935864615854
0.000950444659052271
7.45117952490477e-05
0.000477806291131995
0.000714617722001357
7.37971273611505e-05
6.30553449625199e-05
0.000583418536950816
0.000505566614336326
6.06615376615043e-05
8.15249383079343e-05
0.000380552434896108
0.000461485124031618
9.74562202355298e-05
0.000107548163574177
0.000651476080584943
0.000663940547193816
9.36368349124515e-05
9.22713655589335e-05
0.000973563767980976
0.00178077407168844
9.22433935904581e-05
9.66564191691993e-05
0.00172986141081159
0.00304948365829043
9.71808762631534e-05
0.000114941178880449
0.0027520328766718
0.00283571397328886
0.00011530084309578
0.000115421009531132
0.00519623042581281
0.00411909174570042
9.6919713511099e-05
9.57615608002837e-05
0.00440127027703989
0.00435111782324826
9.59400173121078e-05
0.000107233970036663
0.00760983150814373
0.00412295606224365
0.000107786612518925
0.0001128422850935
0.00320569396765979
0.00234629525659224
0.000110584020061336
8.33153863102706e-05
0.00187505840995388
0.000896979962486534
9.17515707771696e-05
8.11803697055909e-05
0.000521337339368767
0.000299561453565436
5.4883044186441e-05
5.80971988401085e-05
0.000792091887795598
0.000560318760498009
4.65049292903855e-05
5.68068059798165e-05
0.000797922179837287
0.000585239773016707
5.46484522800766e-05
5.32596831742067e-05
0.000417810883334831
0.00042338708478018
5.47457613269665e-05
5.40146069816692e-05
0.000430748538825748
0.000389027544291691
4.96055640174106e-05
4.82811380061722e-05
2.61094766973029e-05
4.10131631311573e-05
0.000285056087203041
0.000243800843574816
4.25254417510627e-05
4.55162032795566e-05
0.000224910356275904
0.000334835942288582
3.98338151282124e-05
2.46654562771266e-05
4.25860386363892e-05
4.49166699592105e-05
2.66127871344587e-05
4.53852838306994e-05
0.000428926833975771
0.00044334180966182
5.31916048167439e-05
4.36772978112625e-05
0.000306334799798823
0.000217346574243782
3.63239361517373e-05
3.85322306863828e-05
0.000182546850164462
0.000174517027506542
3.72464646271753e-05
3.26545495126211e-05
0.000129724051319124
0.000127906299950027
3.19810850967895e-05
3.07470772373756e-05
0.000153123345759854
0.000147391769921461
3.34273835864486e-05
2.62167771782762e-05
0.000126295031857956
0.000140711449467996
2.41594936375378e-05
2.9794535472268e-05
0.000168793896911981
0.000213604588222768
3.02039640280694e-05
3.56842376763366e-05
0.000242921514611105
0.000263696536907044
4.08042839562847e-05
3.35319114297529e-05
0.000246865696206008
0.000212275381192348
3.78792229092242e-05
3.89877813430319e-05
0.000204313519794108
0.000265506926492929
4.76852834195773e-05
5.93999927306079e-05
4.76858088358948e-05
7.56703949426169e-05
0.000303380342711585
0.000370050987884321
7.98081527480806e-05
7.31521157557648e-05
0.000430598257011285
0.00057547017629971
7.03142578721943e-05
8.11317213655318e-05
0.000556391206618038
0.000439073109567538
8.01557827340449e-05
0.000373514444086231
0.000294609952367924
0.000184193600146002
0.000124812325405567
0.000137433560540084
0.000211770753805025
0.000223307264306099
0.000156905586943652
0.000281595936027438
0.000472882706160998
0.000651830332899763
0.000108924393303637
0.000110073644858408
0.000962842511436376
0.00158487939961762
0.000113290812391624
0.000113805081148346
0.00159255086961675
0.00170002156817464
9.76759644988962e-05
9.76063153285686e-05
0.00316759108854875
0.00304048858832462
9.6928259711413e-05
0.000115199158003076
0.00303806254868334
0.00171314998692809
0.000111086772622983
0.000112595589233018
0.00129356909627786
0.000935869099415406
9.50878289247586e-05
8.26694835782355e-05
0.000963471026153618
0.000411945877529042
7.35894225136169e-05
7.27888488322178e-05
0.000425983948764965
0.000409502506781064
4.15977055054089e-05
4.91304744236243e-05
0.00046396365688832
0.00044468314101036
4.79853366751026e-05
5.22935627608868e-05
0.000328460564942459
0.00028776760653209
3.93085381239575e-05
2.58747950944397e-05
4.45145269266498e-05
4.64303344373222e-05
2.96905766243743e-05
4.12249770575784e-05
0.000233879587578162
0.000200617518953081
3.53521052026999e-05
3.02177412551656e-05
0.000230003230828372
0.000189679996499252
2.84185175658288e-05
2.34390997382489e-05
0.000175263225859835
0.000148522218185863
2.27992771555744e-05
1.74650343537488e-05
0.000125629246713163
0.000111455820656961
2.22447990197951e-05
1.8259437385195e-05
0.000107194088938115
0.000108796771654032
2.23856508665762e-05
2.32795968316987e-05
0.000107671225338654
0.000106137868543823
2.29511855316841e-05
2.2471986654491e-05
0.000106175603880737
0.000107965197821723
1.82087828052228e-05
2.24166077449169e-05
0.000117380564281366
0.000135245515903471
1.78679550557331e-05
2.32395016731591e-05
0.000155044325225782
0.000189065669650019
2.53612960631518e-05
3.09023381454266e-05
0.000212768066089586
0.000181875838303998
3.07937106221255e-05
3.3012853936116e-05
0.000175248864307329
0.000160760970135728
3.89624127720279e-05
4.30026888151141e-05
0.000196460818473227
0.000204803690748866
4.9766898866686e-05
6.1232070776736e-05
0.00029285339891908
0.000347949402912464
8.3213197202701e-05
5.38946290715686e-05
6.97984229878204e-05
8.08445424102332e-05
5.87379986512728e-05
9.37292178280213e-05
0.000446280661664434
0.000548717231455694
9.58036189955701e-05
8.75195594575065e-05
0.00041893657568349
0.000454590550627501
8.08787386887688e-05
7.61934186402304e-05
0.000495651518487654
0.000570190192389992
7.95994414884949e-05
7.68567327605998e-05
0.000570835029669404
0.000522072486532424
7.24913492809062e-05
0.000507775642442767
0.000360845136684235
0.000410886317459742
0.000383227515665435
0.00043478950309452
0.000508613592510854
0.000626692974297856
0.000111641093685887
9.79968754464787e-05
0.000761020510079456
0.0010570721943438
9.56954401680311e-05
0.000816230396442854
0.000766983900274452
0.00072086621052776
0.000944590910069016
0.000110150315900136
9.55752843556436e-05
0.000977261603728489
0.000973047298585026
9.27781042624584e-05
8.84707336595859e-05
0.00094907376973745
0.000595181719054401
7.66608238978479e-05
6.59895505178788e-05
0.000713646988825566
0.000639852554937004
5.96314330607809e-05
5.95934397475961e-05
0.000727263323202365
0.000593324867809344
6.46324806793058e-05
6.52894145332443e-05
0.000429463390213413
0.00034521391740503
6.14282685153508e-05
5.3511619977936e-05
0.00033230076761553
0.00030432350462342
5.12054503471113e-05
5.02268400517901e-05
0.000255746701513291
0.000220454577362953
5.8413934160669e-05
4.90966305241431e-05
2.98419095659395e-05
4.30257001650684e-05
0.000216272612301023
0.000181906881566538
3.62291764081125e-05
2.86794543890578e-05
0.000196951603339042
0.000190358080716278
2.44265238802131e-05
2.08101247050344e-05
0.000129752043726111
0.000145649557576104
1.61646548143895e-05
1.79031497360698e-05
0.000132767042476262
9.69680638267346e-05
1.99230703308485e-05
1.60171410317889e-05
9.70977331090978e-05
9.48007643409959e-05
1.92183698189227e-05
1.67083616783074e-05
8.56639161780887e-05
8.06426518328515e-05
1.90525308807038e-05
1.69405734167722e-05
8.35032469498813e-05
8.96789532670014e-05
2.76176414163976e-05
2.08054433229002e-05
9.73406192634031e-05
8.17909861442696e-05
2.49288889779518e-05
2.61644156650082e-05
8.68794378645917e-05
9.39009650410185e-05
2.9876714647988e-05
2.78231665626085e-05
8.95322862037159e-05
8.61563027568177e-05
2.08795753579483e-05
2.47842923621599e-05
8.12922068855235e-05
9.26800467591958e-05
2.03159868767e-05
2.29948519679977e-05
8.94788351725262e-05
8.32522174690566e-05
1.6559739521939e-05
1.73266505467564e-05
8.32130633319097e-05
8.76634279557058e-05
1.70556778801711e-05
2.06646528307487e-05
0.000102387605062052
0.000109534454410492
1.66256091856842e-05
2.03689261153369e-05
0.000107136600941267
0.000145936179703642
1.86423593223484e-05
1.78498872464918e-05
0.000182358647961603
0.000153774931779574
1.86618245026185e-05
2.08152349380956e-05
9.62841295730883e-05
0.000102200190338089
1.5765152305642e-05
2.25162253916113e-05
0.000104197673505696
8.97346060713169e-05
1.81211984316369e-05
1.78718215516308e-05
8.17615827183484e-05
7.96383926130344e-05
1.67266924710093e-05
1.97024952488751e-05
9.03351620966504e-05
9.61636890422662e-05
2.08036757347106e-05
2.49020570139944e-05
8.49076363800908e-05
7.9284708328796e-05
1.95832268951868e-05
2.51971943903368e-05
9.50823054828835e-05
9.81747937342436e-05
2.60276857576594e-05
2.46744221355291e-05
8.74618961558881e-05
8.87571266440972e-05
2.60081589316009e-05
2.08604794437853e-05
0.000103836371977245
9.40945431368454e-05
2.10921341451775e-05
1.63207494416932e-05
7.89761737233198e-05
7.92158781519865e-05
1.83481424672298e-05
1.77156796555568e-05
8.8211220308152e-05
9.60324936381643e-05
1.99202988645788e-05
1.56420194116952e-05
9.13346429797329e-05
8.8861650707777e-05
1.97501366892998e-05
1.85098944028856e-05
0.000126934004764531
0.000160812138382858
9.1588075701013e-05
7.98657809887116e-05
6.100543939927e-05
5.94238675932178e-05
5.97077798324116e-05
6.74101331769474e-05
8.72003119047437e-05
0.000126574426639319
0.00024831102928561
0.000334352645168797
0.000499004367380784
0.000653269867689779
9.51425355866264e-05
9.20573295342609e-05
0.000668819863174607
0.000555340641168955
0.000100818864592692
8.19059455103169e-05
0.000493338815833805
0.000429909314712637
7.27317282376691e-05
7.00748944467012e-05
0.000460626210699048
0.000472211574228944
5.75391563957046e-05
5.61340686341774e-05
0.00051966482215345
0.000410006564507531
6.17338331830386e-05
6.59695147139321e-05
0.000358318047393636
0.00029727376088249
6.49481754194861e-05
5.75314565925601e-05
0.000266657930928764
0.000272618108822323
5.6634842094187e-05
5.23329510811298e-05
0.000212304608563071
0.000197536553050811
4.8540649312159e-05
3.41775537045417e-05
4.4960003989094e-05
3.97803306648969e-05
0.000167903862266529
0.000185754040665237
3.07620434572261e-05
2.28675382207058e-05
0.0001543325676098
0.000166497600904322
1.92027735147179e-05
1.96870050434449e-05
0.00011966602761282
0.000108157165927077
2.188936201469e-05
2.15488156866702e-05
9.82569663771368e-05
8.37519940530111e-05
2.34828328039067e-05
2.2733549506388e-05
7.52139162992113e-05
6.95518477306982e-05
2.25728812589886e-05
2.29163353338015e-05
6.06198455446266e-05
5.42680920080849e-05
2.42068090190922e-05
2.39549553189552e-05
4.96826040922136e-05
4.53507556777256e-05
2.31764611431915e-05
2.09921686045456e-05
4.3062590192807e-05
4.00962131108947e-05
2.30042439454551e-05
2.46255306009584e-05
4.04735334972059e-05
4.02643504808375e-05
2.46143667026966e-05
2.36464768565886e-05
3.98458372181163e-05
4.12122806831195e-05
2.26527814039331e-05
2.33271861348589e-05
4.18955298764495e-05
4.53713714253114e-05
2.24510361654572e-05
2.50347073386939e-05
4.99046725451924e-05
5.56111459903118e-05
2.38631334949462e-05
2.29127296385673e-05
6.16454555322212e-05
6.69053323918456e-05
2.34224413994355e-05
2.40479862110394e-05
7.67221712288807e-05
8.62329081993335e-05
2.34901763797764e-05
2.40625605720887e-05
9.39824687483341e-05
0.000120232391670966
2.33638966272526e-05
2.21011381255481e-05
0.000118227066430064
0.000116871063018115
2.17159531675236e-05
2.24767545666089e-05
0.000149439100416239
0.000142331334233966
2.85410770824816e-05
3.62600781098174e-05
0.000141396833329739
0.000153375046083791
5.13037034682586e-05
4.90927496235823e-05
0.00017386036554275
0.000182642744992378
6.39826740877807e-05
5.32710567904772e-05
0.000223328844391116
0.000250943257414407
6.21291952213267e-05
8.32409762813301e-05
0.000363186493581055
0.000466842550292077
9.54255199416522e-05
9.10562011660571e-05
6.14361491279273e-05
9.86524728381533e-05
0.000615491963428332
0.00075462785512069
9.4128245318917e-05
8.92514184386408e-05
0.000689507854986404
0.000667170073251409
8.33465263096369e-05
8.07569953683295e-05
0.000590449263574972
0.00067799602470878
9.22960906356178e-05
8.08974067790083e-05
0.000732375315863411
0.000958919812373325
8.14178462080566e-05
7.12026636231873e-05
0.000640990665189899
0.000650481161768008
6.57983261148569e-05
8.70955508716146e-05
0.000560600145369625
0.000785890299735203
8.61345753995082e-05
0.000110726930725621
0.00120809512941271
0.00109650190467381
0.000116993576205425
0.000139758545284138
0.000968199175541821
0.000852456586624399
0.000143588381827057
0.000119837208026466
0.000573450177842346
0.000532790421492187
0.000118064548812048
0.000108050286497153
0.000614269269090355
0.000430119831780788
0.000394782589833323
0.000431338253304001
0.000548532383103225
0.000107503756189727
0.000137647751953379
0.0008175340554864
0.000874256943157244
0.000117590858788849
0.000103920152388241
0.000862805553457887
0.000604655551917589
8.49212148631983e-05
7.76103051491287e-05
0.000430912029058188
0.000449152543828862
6.85329456082447e-05
6.11417411920671e-05
0.000429254474841352
0.000477269373624202
6.03354575993774e-05
6.91049976826385e-05
0.000494342803864293
0.000382121948709459
7.59837438017647e-05
7.49030258456885e-05
0.000342648290660394
0.000285130309127679
6.78662579842227e-05
6.82268006489661e-05
0.000317456496971297
0.000225757107891932
5.86805490833179e-05
5.42254230625764e-05
4.34991236783134e-05
6.04941055818653e-05
0.000221404333671022
0.000171861365460047
5.4918803565437e-05
4.79035990848055e-05
0.000185894461930901
0.000181987001329058
4.85734625543557e-05
3.63354443301466e-05
0.000100519099521153
0.00011312946755721
4.83294019186456e-05
4.90854295019451e-05
0.000106550298678626
9.59069267561285e-05
5.13262492472854e-05
4.52942295381579e-05
8.07049701983573e-05
7.84867565344786e-05
4.09284321533801e-05
3.82143643910925e-05
8.16259764733371e-05
7.8431776955682e-05
3.85025067519287e-05
3.71696996558631e-05
6.94006628948454e-05
5.43997556858674e-05
3.54633439351581e-05
3.5290293685553e-05
4.48865643272943e-05
3.8342931364931e-05
3.32399463519022e-05
3.15237118421808e-05
3.4781785659037e-05
3.26902138568015e-05
2.95029996745744e-05
2.89347582598792e-05
3.15577421664467e-05
3.05470632052489e-05
2.74533714847457e-05
2.74950213826585e-05
3.01648800528817e-05
2.9695188869286e-05
2.6320567431924e-05
2.66328221755486e-05
2.97431433266415e-05
2.93212238852201e-05
2.65198811170907e-05
2.63266926779786e-05
2.88809705742725e-05
2.87041500212438e-05
2.73347294524456e-05
2.75779848905905e-05
2.95294513069762e-05
2.94945216531016e-05
2.73175423985581e-05
2.70869298296305e-05
2.88015369521398e-05
2.88497735038526e-05
2.70166903305756e-05
2.70653601641396e-05
2.9252791638295e-05
2.95036884655228e-05
2.63155320904699e-05
2.69082553821503e-05
2.89672060449451e-05
2.93865149584545e-05
2.74629061584989e-05
2.72655611995798e-05
2.97860343364079e-05
3.05628288668981e-05
2.82890483493041e-05
2.8157750361467e-05
3.09219682310473e-05
3.18969260693921e-05
2.97285414787119e-05
3.04306335533716e-05
3.31195659565071e-05
3.53805968002685e-05
3.24841827274713e-05
3.38150319045577e-05
3.90200908377887e-05
4.5622736361835e-05
3.61727288334225e-05
3.68108127104429e-05
5.55240529822068e-05
7.15525303684976e-05
3.90049029904561e-05
4.04687029807314e-05
8.10839551615611e-05
8.67846862104321e-05
4.01120886693529e-05
4.31730452992896e-05
7.99756116394884e-05
8.50166117379682e-05
4.61106591100421e-05
5.25924016560167e-05
0.000107346537026803
0.000117673045380104
5.33244889339353e-05
4.23049123033743e-05
9.57518284471861e-05
9.38283202841827e-05
3.27186630119896e-05
2.94412367147307e-05
0.000103209901108885
0.000101517824011503
2.54092349817751e-05
2.66621711023067e-05
0.00010868567245991
0.000112842883986767
3.14689304005133e-05
3.92530183673371e-05
0.000108887137324853
0.000101301233743017
3.73714580155537e-05
3.2618645026323e-05
8.15956402124046e-05
8.08335795940657e-05
3.75651258252673e-05
3.17025771000746e-05
8.30724332368773e-05
8.09836220191305e-05
3.21049176873784e-05
3.12228086846698e-05
6.9425377009806e-05
5.48751862860764e-05
2.92983268159995e-05
2.89912975885754e-05
4.39977735727728e-05
3.71009786522045e-05
2.67480396917981e-05
2.61126603069761e-05
3.32472816135018e-05
3.06745400753924e-05
2.42733224073195e-05
2.41151679573599e-05
2.92865140329564e-05
2.81963636769309e-05
2.25717377561266e-05
2.2951556226902e-05
2.77729690243578e-05
2.71090834073127e-05
2.20284549910512e-05
2.23893497100168e-05
2.67825696868415e-05
2.6324145039964e-05
2.19527544003876e-05
2.13410079042241e-05
2.67428047251621e-05
2.65157215313482e-05
2.19225845275925e-05
2.2069595840937e-05
2.6077647412951e-05
2.60403678320206e-05
2.21145867834137e-05
2.20291250295007e-05
2.66486681998258e-05
2.67116393796632e-05
2.2230725648382e-05
2.22892553059927e-05
2.60982770186044e-05
2.62567292083029e-05
2.14991983041161e-05
2.15878612421551e-05
2.65747981903159e-05
2.68897426888378e-05
2.16258699656081e-05
2.13443687718723e-05
2.69361140512509e-05
2.74065292043471e-05
2.24680671645691e-05
2.2108147315424e-05
2.78276802276649e-05
2.88459928690345e-05
2.34910820985359e-05
2.36020409934378e-05
3.0115732764803e-05
3.24919162938513e-05
2.54959270749361e-05
2.63754003740639e-05
3.6266637573258e-05
4.28506730759208e-05
2.82975673565541e-05
2.82539921958017e-05
5.38275921714013e-05
6.69633726294799e-05
2.98830746822867e-05
3.080181767342e-05
7.78708776257362e-05
7.88283663806786e-05
3.03113129069145e-05
3.59675893327482e-05
7.99473247078667e-05
7.82799435734025e-05
3.24625727245473e-05
3.06124703781028e-05
8.11926738904413e-05
8.0390236330209e-05
2.63790714260677e-05
2.71331120554194e-05
6.95900211435148e-05
7.02628334852467e-05
2.65964145921015e-05
2.50287226182507e-05
5.32777127786964e-05
4.68067096621528e-05
2.53110841373749e-05
2.34923679066228e-05
3.58850879761952e-05
3.39683574457305e-05
2.32787815272416e-05
2.12929671048279e-05
2.99370085452977e-05
2.92375934696484e-05
2.16705144080735e-05
2.01287374397964e-05
2.7646141106054e-05
2.72396132529938e-05
2.08716619435847e-05
1.95604087362797e-05
2.64593689625397e-05
2.66802326265133e-05
1.9957451679219e-05
1.99498465288021e-05
2.62134490485124e-05
2.58117883503941e-05
1.98695494341927e-05
2.05806150099766e-05
2.54665640029694e-05
2.64085557105941e-05
2.04282992724871e-05
2.02697556641219e-05
2.64208562424467e-05
2.5404797332166e-05
2.0535277503544e-05
2.04598687378797e-05
2.54762920975991e-05
2.60788910816182e-05
2.02472731028691e-05
1.9686222528714e-05
2.61747592361948e-05
2.57704990893292e-05
2.0259212157147e-05
2.07460706342732e-05
2.652040301825e-05
2.67921679034026e-05
2.01786847146881e-05
2.12103709900089e-05