/*--------------------------------*- C++ -*----------------------------------*\
| =========                 |                                                 |
| \\      /  F ield         | OpenFOAM: The Open Source CFD Toolbox           |
|  \\    /   O peration     | Version:  2312                                  |
|   \\  /    A nd           | Website:  www.openfoam.com                      |
|    \\/     M anipulation  |                                                 |
\*---------------------------------------------------------------------------*/
FoamFile
{
    version     2.0;
    format      ascii;
    arch        "LSB;label=32;scalar=64";
    class       volScalarField;
    location    "600";
    object      omega;
}
// * * * * * * * * * * * * * * * * * * * * * * * * * * * * * * * * * * * * * //

dimensions      [0 0 -1 0 0 0 0];

internalField   nonuniform List<scalar> 
162506
(
1.03451109528807
1.0766184429303
11.7856352197937
12.4495956388319
16.6335715486786
14.258570500906
1.59027635207823
1.2183248186945
12.9040131046637
13.6380660227344
14.186124538328
1.10881835104255
1.11131667979115
1.01921583060205
1.00298041124548
1.00607073463692
13.0955832802101
12.3548789401785
1.0220275927622
1.46606830235109
1.6657245966594
13.3401689863897
12.7729296372285
16.5121417903076
15.9606933570888
14.2447932328422
14.3964002495596
1.00632412495244
11.8143756870011
12.5091827144529
1.00241076909143
1.00026647517708
1.00199756067375
1.00002297024531
0.999894496834356
1.00379883338714
12.2940992935776
11.684002997087
1.00902086780544
1.61901939911165
11.6729973963898
11.61969944302
1.47101990198227
1.67965491321686
12.4313226022113
12.0560068087704
1.13995319599852
1.65959981261813
14.5181257801236
17.11482293178
12.4965715335209
12.7377040182104
17.8384621865982
14.9943033212452
1.81333024519057
1.52611801811679
13.6490034060523
13.153564490353
1.44843566727604
2.4122249078482
13.8170724733276
12.6470115554147
1.60133093248176
1.03328981486094
1.00676595151435
13.9019360313593
13.0361244765671
11.6869158818655
12.0024580896203
1.00216334878207
1.00816364182547
1.00253184880523
1.00060279308918
1.00199231933948
1.00655146301607
1.00760902976899
1.12008366213355
1.31298960966499
1.84972041472358
11.9884521332608
11.9532605301801
1.53240192016907
1.00559822509647
1.00179026175281
11.811441212576
11.60544150995
13.1762210230973
13.9108967778279
1.00388397650906
1.01000384872147
1.00011764086244
1.00011099247013
0.999955628343114
1.00000180434871
1.00047023691895
1.00002772670936
0.999912168606838
0.999839449708665
0.999860188799688
0.999923076381724
0.999912996088063
1.00004732024725
1.0090668925849
11.6805824677263
12.2896222736604
1.00372040780824
1.00227573710926
12.4965942480681
11.8041478603275
1.00620008536065
1.46888046271343
11.6100199322786
11.6697584171317
1.61850693567484
1.88056785749127
12.7244948435414
12.7292530493917
1.88180626654798
2.02042778005244
13.419964854611
13.0096083555837
1.80742720084918
1.21735181461951
12.3969395946764
13.5338484616434
2.28593336469826
3.11166597527685
16.230918183042
18.9490446187404
13.5103141572596
15.8230974473499
21.7773482712646
19.4480090771065
5.72827105316955
3.60463731557625
16.8257523857226
14.6522862011701
2.33573539470248
2.66061028430058
15.5961484310213
14.906529907244
2.43033399490549
2.66618694804172
14.6605847979996
13.5245933669221
2.52094437328872
1.83661545484318
13.2115020446552
15.2974366736618
3.19406284143894
2.07702862085532
13.2957414883172
13.6020687766128
1.88367026013242
1.01321973991647
1.00525621295026
14.9669423929748
13.9111836717745
12.8154070958656
13.6253564128681
1.00477210570024
1.01060967544548
0.99992511406349
0.999940179437487
0.99991163558703
0.999769552768561
0.999802940443426
0.999922012752749
0.999975848086552
0.999986131421991
1.00050462655016
1.00007358682521
1.00035587176767
1.00213491094812
1.01995785705618
1.00330886697496
1.00433184496307
13.0739494114019
12.3333041561098
1.01948482623784
1.07036190059121
11.7628796621088
12.0304693431057
1.13312434636574
1.67636327996319
12.4187725716219
12.9948431051293
1.80499823571883
2.01897253794409
13.4132758456478
14.613703629209
2.73500907902351
2.74788202344484
14.635265439975
14.1965473198126
2.60861515751404
4.38029198807427
17.4532113418012
16.5670933130571
4.19649663620026
4.86901746918669
19.8262605532295
20.3775732851171
7.56519667738957
8.23108035881155
22.4226099895226
24.5387355859215
7.94559008975659
5.94795514097472
22.6293786751126
24.4155536597002
6.83572619898221
8.9399211321605
32.1975331820379
38.347386189352
11.084195016369
12.3823927162595
34.4617454016191
37.3122456098233
54.1381962835233
32.001891337517
13.9699110999074
12.63896338892
30.0771937783248
28.5537531765133
12.2449151938694
11.8796759839449
29.9721812820861
40.5647041804681
29.148415923867
27.4414613321394
9.20566176195292
23.975797513139
32.5244814006868
28.6462946622256
19.6722289985329
7.81890296790242
24.4908182287724
20.6068820530239
6.08289020712141
4.32474679575808
18.8775436514526
16.6885319948524
3.19993317248714
2.95986947366577
16.0787483438165
15.2883834264425
2.75583227846072
2.07572119376594
14.8633729112623
14.15348561373
1.98353796158833
3.52582027756236
17.1323347264362
17.1379415232962
3.48581820510756
3.09092098054488
15.3369716051983
13.2263776960632
1.69013566509689
1.32003337226428
12.4084188582404
12.4014252853168
1.3287223569204
1.01034392327512
12.800999435415
13.6086987901824
1.0048212975453
0.999955112888935
1.00005122114383
1.00101022175021
1.00003222625657
1.00459140761412
1.01696288646051
13.8699302548616
14.918294209826
13.85593960212
1.00534207129669
1.01138123422199
13.1299495697672
13.2725958477637
2.09852515677053
1.54314396192956
11.9440083102369
11.9906309990797
1.85635027031591
1.00790302991942
1.00225598572299
11.9725405249673
11.6715594668103
11.5794549760666
11.7742794628484
1.00203027105061
1.00591012061897
13.0125231995786
1.03252488297
1.00643543536073
13.8643168107801
14.1613283678102
1.10204387642726
1.10379117193652
13.4366361491267
12.7321860421214
1.31369495402367
2.01800061484556
12.5954317590129
16.0140904126035
13.5478548409474
13.2671852272296
13.7992790557307
1.16681082890601
1.1513817884252
13.1131162828711
13.4797177932738
15.4106460637507
15.3805359627836
14.4627938145041
17.0622303820066
12.4681531427284
2.09642019020168
1.551466876758
13.1431943458228
13.6570867453932
1.65304022993567
2.26257673354985
12.7038597381163
17.7920599774164
14.9512358145528
16.2934142512437
18.9427549157655
13.6840723868423
3.7551207365423
2.36338721360902
13.5186557664515
14.1596718730105
2.59239721194882
4.35626084567876
17.2877603493174
17.8695769967106
4.46161149042257
4.48546902177847
17.9414439102421
25.4998645514404
7.22176947906626
9.75639918358598
36.5057976855551
44.8664266507059
11.2437631917664
10.828716687552
43.16014711882
52.0920968426222
16.2505571854231
16.100144032464
46.9555050851711
40.6747056946721
15.5410016295415
13.9858067294805
34.4362525055484
56.5134460290081
41.2216603503641
43.8619048842861
54.5481626145738
36.0526744215381
15.0809647666561
12.9392309404908
34.7742474166907
32.4201603338159
12.8035974261151
12.0709096510095
33.9712700048399
32.0832620682439
10.4325151990809
8.9529442893372
26.6986994814193
23.8998504847562
6.92385012092422
6.47922626585937
23.8072777653963
21.757423399169
5.7174655069895
3.67186594480598
17.666875721215
16.8705743458368
2.62166315782309
2.19037121744765
15.608847252676
19.5022731325614
3.86923594466576
3.73977714145678
18.3531744576748
18.3337678247937
3.7455441469227
2.04822887908772
14.821452758427
14.0847842286311
1.91174294039881
1.91593275230264
14.0793625612069
13.2250048590789
1.69043386855136
3.1044247785385
15.3372080748229
13.5831058661001
1.91021780052776
1.25922615259351
1.00128801996483
1.01041960390413
1.01817090767932
1.00081982645674
1.00030755003374
1.00016526519842
1.30022322388115
1.11919320529574
1.35729398045754
3.21760863108665
15.2979867325455
13.2092299443942
1.84653645435248
2.52975920517213
13.5313940188655
13.8231914646913
2.43045133820206
2.4720458135062
14.9296640770799
15.6585097934601
2.76003611090229
2.55228089891042
14.7300943732548
17.1685526175043
4.02699860952947
6.29873123270684
16.4061686835846
21.8708645926974
19.63192791034
25.0733308280486
28.84589296218
20.9198990940868
8.65686511006265
8.15129082927036
21.0107113506731
19.7414907014846
4.89571325939266
5.97749461177567
22.1123532062772
24.7820672091156
8.62719396633655
8.89713191574144
23.5316396865338
26.0070034482426
10.016785450223
29.1686746657912
33.5296576009593
43.4679623959305
32.4679141673781
13.5294082944627
32.8248139724581
34.4755639409266
14.8065083169018
15.9708804101596
39.0586729529359
39.4440419600339
57.6531016421351
41.1131299233986
17.5163867923905
14.9898559539714
36.2257733008891
38.1869454109247
13.0359105681546
11.8961158587542
42.5460300000255
44.1945933636255
11.7011645473176
11.3350720017688
45.0373181206763
45.3481181182232
11.2925786604934
17.4194623350606
54.1899830503211
54.037243548647
17.2440911494628
23.348276055011
71.4082444034509
70.0014517965577
22.3444167013355
21.5127140280129
67.1429409003581
62.6354496304507
20.6829984793571
18.459377503851
57.2294331569257
50.6731049479836
18.5465334740555
20.952947347889
59.5350677614047
47.0137880596252
56.0143208423379
37.8577843651704
15.9120440182144
13.1900675694253
36.4490427332459
40.2651056242003
12.3545721671324
11.2929233767947
38.4664797254079
36.0895950665599
11.1357882726787
8.26591219576129
30.4490701039525
27.8445787190156
7.59325262632681
5.11680797094381
3.31847483144616
1.67694607838684
1.78022607125309
2.29302464326929
4.54847970025017
23.4465250600556
22.5422028686346
4.7002758848912
4.45795445782056
24.4092371032863
26.6804841088584
4.93961675339043
4.90133548017832
26.080606728918
28.2895199979464
7.48804247205954
7.23731354426419
29.003121171121
30.3148493029182
7.14985860385772
8.75557500651229
33.1838779863674
30.6037675771411
9.06137134205644
7.05124069994172
27.3167203838875
4.74694263021447
9.4393255426622
30.5869789592811
38.1764199187404
11.7934852176383
11.1792061631005
37.0491285921955
31.2546755548335
7.7452163529952
4.84610167262957
25.4125372607302
25.619299398211
4.79478356666816
4.82568653851622
24.6200146611327
22.5845717992404
4.69221169432176
3.97870432177895
20.6809673308622
20.6445290614414
4.00329780785367
3.88739097145759
19.4683343294798
15.5074345093078
2.12247104140936
2.12948881292718
15.4929351748258
14.8127186943581
2.05691494392211
3.76000969598913
18.312003111292
17.1300887915309
3.50282174982957
3.53832923913934
17.1283013089368
14.1430992674048
1.99325250186731
2.67844188003137
14.6655892682286
15.281858940594
2.75805686966449
2.94219420070853
16.0348032482044
16.9463038526807
3.5136846266424
4.7452502608354
19.4353597519684
21.5864466135286
6.78875303091715
10.043502649211
28.8417301256515
31.7879581844571
13.5130849719441
15.0203064570268
40.8201454767794
43.2491470976885
16.7970601270612
16.4156262719489
42.3817603846643
47.1531068513866
20.7873306615988
20.8366740953369
49.8184587553005
47.5357365489331
18.0411720710428
19.651216523462
52.3307534645465
61.8650328064287
85.4116425484367
76.2920920848585
27.9274268969633
30.6906008060209
78.2891806115964
71.3667379753156
28.6165665732543
23.7695164082288
68.0226842373431
85.5397257390878
55.5440673792541
49.1745908485315
73.4746422974216
53.4717074988707
23.5456614047214
21.6421094004907
48.6658153884745
49.2830216069984
19.1599053277247
17.6698289061069
52.2891642804188
53.3300769991554
17.7644662530615
17.5226895688803
53.8436654399479
70.4462479906409
24.216052716616
24.3437446924127
70.8190459678976
71.1284979355146
23.7014159479681
23.8425798719633
71.1741398810919
96.3636204621307
34.5777577144471
33.8775138488394
97.0492466786985
95.7658432169903
32.5644954528744
30.6827903843347
90.7240988199513
79.0965508733522
26.2234934090505
20.529505123436
66.0006367056016
73.8017627211163
22.9470178632175
23.3506290878593
80.7370717648278
83.7877269332732
24.3325449309713
22.0966291509126
65.3069082615239
49.3647617549511
58.1642027123097
39.2756414005544
16.6823542491724
13.4828664353789
37.8996773859642
42.2951296709933
12.609921641033
11.4106239431185
40.3310227254847
34.3253210674291
9.19919188980954
8.64936852134592
32.8793871093544
5.82416931429313
4.05708633028627
3.84312423194855
4.60375127710182
2.65954717483682
2.2989916398584
2.06316007257188
2.22867534052332
1.45130593925357
1.272507424018
2.34864890229121
17.5292781138886
16.8676863268932
2.23264609245111
2.16979833612866
16.1810430453586
16.1472512199563
2.15326538784924
3.97511416498743
20.4910410507122
19.4159732227595
3.905088795018
3.82418281068223
19.4295257867192
15.5312516634266
2.18299000542495
2.89736329719532
17.1087319362538
18.0302736189994
4.0520892497212
6.48926246158567
23.3511419293436
25.7298123019349
7.96638778458786
7.66119552565889
25.6651420704399
30.3759981057198
8.71346567110007
11.6668066975791
35.3627741262192
40.2741482953481
11.9820141537885
16.307383484332
48.3622539874226
56.2099467979972
18.953196647365
29.3452512651277
83.4763123142665
96.8265149580913
67.1667894078643
65.9367752470982
95.6111376190068
90.4604810553794
30.6110171645918
36.3428083451984
105.460259381145
106.087455667051
42.1753637022791
41.2255036005809
107.557149974352
131.396685599458
46.1231534486369
53.1663394084861
147.585777905259
142.414620182576
50.8744986612309
51.9962204197502
141.387092257216
143.799713457095
52.5114786951419
52.3911245445952
143.928810560813
145.020623859848
52.3269389200578
52.5630873509608
145.252667406771
145.558607209846
52.7573338740318
52.0743190832464
146.108030985299
146.241188102115
51.53575982919
50.2721262677139
148.139129123704
151.471074686065
50.3410864749877
41.4326572527368
131.418243268257
96.5431850402591
30.6198964213304
32.109442459829
108.314398283826
113.734659925382
33.8261552846878
36.1248003222979
120.514083727594
86.6160901231023
24.7275783802054
25.9922237328659
90.2488025293965
69.9022131079072
23.2000741603796
17.3806980178523
40.7935038084759
61.4847178562081
51.7830260597248
54.4758390943747
65.6006276569823
42.8250935793794
17.9067885472185
14.2918454570735
41.4651573509294
39.4148042386119
13.7635833415814
12.9701996724797
44.3948066721326
42.2869146100603
11.5917975709701
9.43724512758642
36.3333141125937
36.5978622976134
10.6979256930176
10.344381926432
33.8867787763616
5.72120200047567
6.36115622455364
4.98214569817131
2.31418725543795
2.48124064777554
2.20197433874086
4.3215141061354
24.3354831127711
23.2235294106428
4.20934214492153
4.13146241347751
21.9532416124758
1.9144283654695
1.1620132575307
1.14769885336673
2.21396771899273
16.7715837996904
21.5703400149765
4.02313240088937
4.03193235101884
21.7662068225787
19.7543258073878
3.56330066802863
4.47941869550437
23.1043112549381
28.0426874849876
6.95374466237384
8.82399422288426
33.1647122893726
33.8773328343709
10.5075512906256
9.040218924214
31.362133734294
33.152271218984
9.31363246618226
9.79487830196586
35.5299505474077
43.0265933790344
12.5337012078717
17.301252968597
52.3137711584435
55.2907870679962
19.3631092718762
19.5958905523797
57.3788237401436
67.0141810735895
97.1074428064787
95.2683346767379
31.6835514791787
37.9105566700872
113.881765754186
127.134059966077
48.1605603620477
53.9000959522017
146.721152240795
192.673012497615
59.6821360904654
65.8994020292691
258.226926347294
295.107056912899
66.8695861496221
70.6971531144714
283.726176304299
277.249004730885
68.4254171974964
70.5055480985534
277.811784503862
277.00397932279
70.9565899388432
73.6834972137046
280.333807366859
285.007059856798
72.8880156001939
72.5402360975041
286.336804561926
286.24641686275
70.9707850248894
73.7573618630028
287.318346987838
289.923854030133
72.9083485572819
71.7531732535549
290.106175179918
290.156812478104
72.7019453318961
73.3846161253922
289.772460614667
289.269258143136
74.7136426185841
72.0983691724788
288.064640343717
288.43450970801
72.8309421006162
72.4591596922492
286.625715216549
284.168390267956
73.0781571773582
70.4341651238456
281.266294728047
282.270789054576
69.6540105430556
67.0858289113364
281.878318498405
287.215378986192
67.8255174896213
63.7611098013601
298.846799488244
259.130440819116
62.4517682493374
61.9942630558685
247.736620724762
238.773637398351
66.30560414077
64.9445921075663
232.992864829474
230.227585533668
67.3465807459259
67.0290215324211
227.441778717562
227.760829032798
69.7242653961956
68.7095571553352
228.152883880357
228.378805186939
69.6183483333816
68.4381396940754
227.499406754562
227.753935575306
70.3159911784425
69.3340106118462
227.566553776655
227.723988831659
68.9076958640884
68.2636027343898
227.472966439235
227.234271217519
68.8014146677659
69.2297457364183
225.636233326946
225.1738037395
67.6433859142342
69.265706353136
225.514560915158
224.948981844365
69.0353706418414
69.8511350544278
221.692653925816
220.50486581677
67.175749240649
67.7303198859359
222.222872398698
224.423376319083
65.7364671435044
68.8818119555936
230.975483283083
242.158507639372
65.1609399435653
66.3982098923641
36.5845997844241
23.945459600636
13.3012749399428
10.5604175452704
7.12212431477594
6.01181194555491
3.57334503982149
2.80103855527621
2.46879670242852
1.85854547518284
1.80225377545543
4.13582406752368
22.6569347356602
23.3843013491669
4.32661714753429
4.54521075335267
24.9492817395265
25.1187745197156
5.06176586181853
6.76686033555173
32.4937885148427
30.9133161191226
6.54145643138018
9.70635480524144
38.6436983135164
39.9233510668163
11.508580870677
9.6668467469083
34.4529972039371
36.6064741928524
10.0071791666089
10.3539509042593
37.3054993982171
45.2930819914519
13.4496101016077
19.0731242599216
57.7637379178728
62.8680383268814
21.2172764051572
34.9896145467424
75.5387865949435
105.862779890014
95.3240601058724
123.214864659107
39.7046551110419
50.1093874578812
144.619551168165
191.961800297315
56.9231480673585
72.4777418301527
290.986004338534
333.521414907906
73.4061823802732
73.9769687291433
314.923074620443
298.797005033324
71.3199640857966
77.1527240512469
292.099572795851
288.685615422072
78.0005888152027
82.2591601859678
294.719891434409
299.862525897151
87.0420325405577
92.3581958276517
305.768986634893
309.731388216015
95.2607497589458
98.8708639242781
310.552102563839
311.005857948925
101.36734344386
108.655231496973
312.962462435271
316.519902101528
107.337936443922
106.350428775769
316.245600954775
315.807565333298
108.095360174621
106.396074380411
315.3803157565
314.082511532395
106.513017007524
100.034023912868
312.265054230323
311.982675388219
95.2707629055029
90.9039333201281
309.716143537727
305.120880115679
87.7720705176818
83.4169990127952
297.86185784778
290.393495319817
79.0642423191761
74.3630119103743
285.164150408065
294.759101690275
72.8054591104595
67.9493350634805
311.182713393115
256.593055582387
59.3014621768826
57.699634462559
251.849229827947
165.971398468339
44.0721425313388
47.2799368499226
174.482932382223
189.652471284854
50.5175402798387
53.9252048067337
212.500735618935
129.270765697341
38.4065891870582
40.6459038994134
140.957509980625
93.5986839008139
26.2883336029535
27.348046496076
98.5178585277555
75.2103600796455
24.1046734985755
24.6268342117137
80.7079874235801
59.0916135885994
73.2845789474214
48.9246405719542
21.0660227537987
17.1548485354954
48.0444857316242
51.6548681558752
16.1204885071545
13.4825233591193
48.5273558900335
44.4205998114145
11.804250409519
9.65180216004692
38.1641514840484
38.5777856963733
10.7736951524187
12.2298237492158
45.7244737760601
43.2679172199788
12.2545672299079
11.3732018863375
42.1430551545416
33.3178576027384
7.0999936523169
7.11526326104572
34.2657348009719
28.4589673866572
5.77134087389113
6.21842367421306
28.4569677512349
25.6360742898343
4.48399182700142
2.57636732961194
18.8750030650133
18.14279931206
2.48994544885327
2.50546178479711
17.9956142767357
17.375087769493
2.34162589680249
1.27911900427492
1.47435246305038
2.00329815948425
4.31557236199767
23.7982957202274
25.3019579817038
4.58849143229851
6.27787598456019
28.143144822222
28.3049555009013
6.16203517868878
6.6454219684186
34.3884199208337
33.4313987789403
6.50621013465276
10.1150494615051
43.6770053804241
41.6938249248986
9.94524651842361
11.7481250541535
43.0869179083413
45.4255551361031
11.8708461637643
10.2939925604695
38.2785925318069
38.9182278892309
10.8277156327527
14.320208628725
47.6414595768451
62.7650487594617
20.1231176797146
22.1201016002476
71.3768004192444
90.4910950281653
125.806657728881
101.559391414245
37.2958638492591
42.8345907387218
144.559175521782
173.31486923242
54.3168488105466
63.1457628854266
237.03369881479
343.562262764281
73.657299173744
93.4492721461213
452.254591296109
422.284872459582
96.0805882046994
106.388707487879
424.992266574217
504.400211151358
133.580103752827
170.011979997704
641.70517973554
799.986394670039
202.055013616501
215.693559087679
845.689184078551
860.222663779726
225.902333809747
240.952790416187
863.603676028632
867.619668325485
262.635047582991
284.622766805651
865.842562418094
864.328731127169
304.295307733765
318.77733384566
858.440479415472
856.882463644985
331.496794530244
340.326823316794
850.816586876006
851.733952222384
349.414777562584
354.660600243316
848.603912942711
852.76841100169
361.838464158773
369.81279712437
853.221616096181
858.994820850872
377.857735712128
376.921057219876
867.567807573629
870.515849163879
371.531507424943
368.960575527241
866.431639505146
864.657444782628
376.494241390024
380.503471548413
864.307915860065
862.315747895508
373.39350085912
372.096228546238
866.17177386268
862.792558644783
370.423563779066
369.537274400571
865.281871424859
861.804712115427
361.321101594804
352.845035232982
863.431003647156
861.466232125
343.05590326931
332.918509625667
866.613150066276
867.710381341405
319.012929305825
303.448297210672
875.023363293917
877.499130214798
283.174096232811
262.738473020209
881.846204463651
879.814727327239
242.603374477606
228.591139813112
876.697150793393
860.479251630784
218.12453625609
203.09347366135
810.713464867165
646.270235453912
170.88120070193
136.086373619365
518.167815495177
458.981293326815
111.181981815303
93.672813700979
459.025603941475
325.563782164327
67.2852952783515
63.2587501535388
298.868255728595
281.407390872974
61.7095927232192
58.9818026514559
265.340088395033
335.557312978079
71.2510044286695
77.9848532034664
367.150755987169
408.050372760599
84.145315566585
100.059161091535
400.186016255417
434.980045321363
121.842645586055
161.049498234136
586.919039598385
704.763628090614
194.561656035617
207.440216331267
741.73133666195
756.114240415482
216.656299437157
224.597477409274
762.216851549063
768.373038819483
239.818278048772
255.808564075443
766.089486414792
768.011634894287
273.63154799056
287.844872842864
762.207939798093
764.365356363785
301.163762221662
310.888795524219
759.584685445137
763.274225733074
320.435267137372
328.26812453552
761.810502124853
765.844775425828
336.374973077669
337.304269361918
764.57974639625
767.504863021327
339.896762550381
340.887907253656
764.386330215773
766.371030694606
347.341776755496
343.405811438609
766.932511093734
767.597639638748
337.380504022535
339.710130388116
770.814710175306
769.036114276978
343.454388619675
344.304093413486
761.083166114685
756.602472240692
337.079077840864
329.361806504411
755.602066087975
751.420027602776
322.345683697969
317.430563279126
754.356794494641
751.510279804193
308.260526460649
300.094282032635
757.03904614844
755.338449013504
287.92139643252
274.645902502826
759.678226057013
757.244244002514
257.422224297266
239.484691947656
757.090353852975
749.749387290482
222.737046679102
213.889075083164
743.823389999293
730.394034409129
205.119151216427
193.040448673737
696.212589072518
582.217314052337
160.072539796927
118.557151735162
426.012422706209
482.823315626618
148.230918214274
174.403561902709
546.457106958567
567.501066594547
184.671521598254
192.608634736941
578.409458125804
582.481174021034
199.68487272327
212.094020891992
589.353556233867
589.584450030893
226.08021385427
237.821765682163
594.799397500301
592.063095491155
248.651559203028
258.564569924316
595.938211577523
591.368782373915
265.713523651907
274.058760733066
594.999882291001
592.67531398502
278.619996581003
284.666124328257
596.055886927328
597.450308817423
292.184852101373
298.086807039075
600.191603807973
606.781559657545
297.263909167405
295.380016413206
607.800471704482
605.538675609357
293.322476586286
297.159147331787
605.380592276964
604.753065482209
300.803157121017
295.993244901607
603.36653939458
605.540732492081
295.272877781189
291.829767966955
603.273038918005
603.536596987084
291.083058971183
283.753154677915
599.992192131915
601.062569932907
276.632375006707
268.414189801065
596.793777807941
600.794591653281
259.588808136805
248.7532680389
596.437244900181
600.558583277725
237.259081357053
224.802032762944
595.204154049923
597.280302479157
212.778179826686
201.120290550688
590.720119937222
586.417075371851
195.0830261879
186.890945814462
575.553301692374
553.642749798802
176.279405241421
149.369808918117
487.745428732496
400.235556547075
127.65858319451
99.8546045011784
355.245440394827
353.739701965546
88.3786262077326
79.0756852206825
319.205171494283
311.047104745054
82.9528013422264
90.5313875890373
321.770758384078
334.104243745077
96.6871640469362
141.347103653413
426.50459830679
436.153825422774
152.719572573882
170.511980841288
438.782737318883
439.51820951829
189.575851543983
206.041142400277
439.580347572721
441.688328914753
219.324670147298
224.467742088927
443.655057900004
443.673881210392
228.7174910417
226.36823830934
444.669531558767
445.754370530725
227.179053547579
226.452526620648
439.799556840253
436.579452453061
214.449019083538
203.780460681132
435.807037188493
436.255972512774
189.462429240579
171.812411562153
434.650010883194
429.903429038556
152.712414187479
139.778889311187
420.340312254775
396.084091183388
125.705582988983
97.7361377070955
351.51531270073
332.929634892424
82.6819116728167
94.6934798054085
372.425122261639
375.987888504736
87.7843096485846
84.77543271945
403.154422425066
315.683873102015
70.6841408478581
60.1078353575346
208.488087928727
298.661853227837
70.7289326971764
79.4251403745592
365.480087432611
341.51880088026
80.2861018317123
76.0910785709164
321.638237650899
310.008702542965
75.6297133045898
83.0588246914477
313.674046362507
319.58400586689
89.0591611248252
95.3006371268331
329.411092577743
335.655082697104
103.453874306908
115.35779930403
338.912836976647
339.869595244857
125.773416283184
134.897096834524
339.223204527163
339.15832979929
141.776571600091
151.383576376566
341.293280746579
345.014136109006
151.337077171688
150.66280579526
344.564381871494
343.987108937861
152.361180025703
149.259110224529
343.587224551018
342.706536122164
146.514938989696
136.706698834049
341.527695002774
342.463679313678
125.758230040256
113.870721045812
342.502833835366
341.23136248589
103.399752228606
99.9861179078096
84.4085716526855
80.5664479610176
75.8824629171029
72.9451297114983
63.0272888182924
59.6832497205928
55.5695326081822
53.4192453106867
44.0061719515531
41.9621969650137
38.146092229002
36.729379311818
34.073006751923
32.3859452173735
30.5907605467347
29.2902247499717
27.1807673681041
25.4732536523501
23.5558566347476
21.9185638779997
20.1277350632055
18.3425248585902
16.3089828499942
14.6954444880144
10.2777250639318
11.556407398414
9.23639526524844
5.88591408910026
2.86603025909041
2.03210192508076
1.42545190863581
1.54015785175162
1.62318099203726
2.63622057408501
18.7886895559006
20.7415321360718
3.89647745186929
6.81300293288646
28.9046411713382
37.5526996620694
10.8096456220579
8.29723870832933
36.1595969414453
36.9699474878288
7.00230392745821
6.57094025843856
35.3625959820119
47.4439185955918
10.1396123375424
10.2161133440866
45.6469594527576
47.7103019051725
11.9673101335928
11.3671052263048
40.9902219117542
42.1368836972389
12.2108008678563
15.0299661267672
51.2871156939723
67.752967467888
20.8193146944167
22.7194389249339
77.3088509329733
100.154350014356
144.754865999552
114.96622976359
39.035730434209
45.1701155069085
172.702961441764
223.692932269871
58.5488836666559
69.3531775456444
362.190545626866
552.668577717934
84.8626173829444
139.893571586799
826.266298358055
775.527366741328
141.857864995131
170.982320447907
836.482505079412
1113.63495298564
217.124387696215
296.430897122581
1601.89339635068
2128.88393240627
402.160881533064
437.177221171637
2238.83725854431
2241.94523094796
437.332010245362
444.588079141604
2197.47767284847
2125.64464638234
461.571354826171
481.664959736858
2079.41677338271
2109.93538829956
471.777368492498
442.660529289935
2158.70394197649
2193.35422633186
416.157906140588
408.557606954143
2218.206831353
2224.47035562994
405.201809192812
409.119901697685
2229.93628449488
2232.47990438917
408.637036577568
411.216400117272
2225.15802899189
2240.75295716593
417.330008699782
416.506851681822
2246.48554503272
2274.10620842977
416.832676687286
412.629270802272
2264.94599931276
2244.09132565026
412.915288337084
416.695636608938
2246.37886865176
2247.78887501681
413.669084805702
415.259932235982
2258.03456167583
2244.65488280613
414.886125924172
414.914929568883
2254.83176275971
2258.44700042022
413.151649334969
409.048711227613
2254.33637862087
2246.70139266547
410.896235872178
417.554888978364
2221.39353287751
2186.44488199744
443.631943886273
474.737758380997
2141.92798450984
2115.48336389442
485.598178752288
468.553068985949
2165.53557254993
2238.42525626361
457.179139005088
455.574909537862
2282.55021547562
2273.94866246991
456.410333764532
413.214149663341
2151.30939279308
1608.77501012109
299.198553602293
218.52964111923
1147.85535449182
908.91419609005
169.749406858981
144.996903298902
843.379481456662
524.753629716081
83.294208849151
76.8324627116642
449.071973111536
401.142791608854
74.6333008229019
69.4589661258376
353.928915468319
529.301346561286
101.382645183196
114.364564060964
620.638505177071
726.833079069636
125.918525259654
150.336398504605
766.264495494784
943.237074747582