/*--------------------------------*- C++ -*----------------------------------*\
  =========                 |
  \\      /  F ield         | OpenFOAM: The Open Source CFD Toolbox
   \\    /   O peration     | Website:  https://openfoam.org
    \\  /    A nd           | Version:  13
     \\/     M anipulation  |
\*---------------------------------------------------------------------------*/
FoamFile
{
    format      ascii;
    class       volScalarField;
    location    "7";
    object      nuTilda;
}
// * * * * * * * * * * * * * * * * * * * * * * * * * * * * * * * * * * * * * //

dimensions      [0 2 -1 0 0 0 0];

internalField   nonuniform List<scalar> 
54636
(
0.0248194
0.0156317
0.0115169
0.00945747
0.00839242
0.00784095
0.00756292
0.00742591
0.0073593
0.00732629
0.00730845
0.00729647
0.00728559
0.00727372
0.00726023
0.0072458
0.0072324
0.00722188
0.00721929
0.00722667
0.00724086
0.0072591
0.00727668
0.00729068
0.00730092
0.00730745
0.00731138
0.00731364
0.00731457
0.00731488
0.00731486
0.00731456
0.00731425
0.0073141
0.00731375
0.00731358
0.0073134
0.0073131
0.00731295
0.00731287
0.00731298
0.0073129
0.00731285
0.00731283
0.00731282
0.00731281
0.00731281
0.0073128
0.0073128
0.0073128
0.0073128
0.0073128
0.0073128
0.0073128
0.0073128
0.0073128
0.0073128
0.0073128
0.00731267
0.00730212
0.0408179
0.0346094
0.0305262
0.0278739
0.0261962
0.0251704
0.0245651
0.0242196
0.024026
0.0239178
0.0238534
0.0238087
0.0237703
0.0237347
0.0236996
0.0236711
0.0236522
0.0236425
0.023644
0.0236608
0.0236889
0.0237245
0.0237593
0.0237892
0.0238121
0.0238286
0.0238399
0.0238471
0.0238517
0.0238543
0.0238554
0.0238561
0.0238557
0.0238557
0.0238554
0.0238551
0.0238547
0.0238544
0.0238542
0.023854
0.0238539
0.0238537
0.0238537
0.0238536
0.0238536
0.0238536
0.0238536
0.0238536
0.0238535
0.0238535
0.0238535
0.0238535
0.0238535
0.0238535
0.0238535
0.0238535
0.0238535
0.0238535
0.0238529
0.0238179
0.0458322
0.0423825
0.0397748
0.0379129
0.0366509
0.0358365
0.035333
0.0350325
0.034858
0.034757
0.0346956
0.0346525
0.0346167
0.0346042
0.0346027
0.0346097
0.034622
0.0346364
0.0346523
0.0346798
0.0347117
0.0347286
0.0347323
0.0347283
0.034721
0.0347139
0.034708
0.0347037
0.0347007
0.0346985
0.0346968
0.0346955
0.0346943
0.0346934
0.0346926
0.0346921
0.0346916
0.0346911
0.0346908
0.0346906
0.0346905
0.0346904
0.0346902
0.0346902
0.0346901
0.0346901
0.0346901
0.0346901
0.0346901
0.0346901
0.0346901
0.0346901
0.0346901
0.0346901
0.0346901
0.0346901
0.0346901
0.03469
0.0346892
0.0346503
0.0477547
0.0457714
0.0441867
0.0430057
0.0421783
0.0416294
0.0412818
0.0410703
0.0409454
0.0408727
0.0408295
0.0408008
0.0407956
0.0410494
0.0413158
0.04151
0.0416351
0.0417248
0.0417691
0.0418051
0.0418345
0.0416357
0.0414286
0.0412464
0.0411035
0.0410005
0.040931
0.0408867
0.0408594
0.040843
0.0408332
0.0408275
0.0408239
0.0408217
0.0408203
0.0408194
0.0408187
0.0408182
0.0408178
0.0408177
0.0408175
0.0408173
0.0408173
0.0408172
0.0408172
0.0408172
0.0408172
0.0408171
0.0408171
0.0408171
0.0408171
0.0408171
0.0408171
0.0408171
0.0408171
0.0408171
0.0408171
0.0408171
0.0408164
0.0407852
0.0486215
0.0473808
0.0463718
0.0456085
0.0450672
0.0447043
0.0444725
0.0443304
0.0442465
0.0441985
0.0441719
0.0441619
0.0443473
0.0449069
0.0460192
0.046528
0.0466786
0.0467734
0.0467898
0.0467668
0.0467668
0.0465571
0.0458334
0.0452776
0.0448747
0.0445991
0.0444204
0.0443098
0.0442438
0.0442056
0.044184
0.0441719
0.0441651
0.0441613
0.0441591
0.0441578
0.044157
0.0441565
0.0441561
0.0441559
0.0441557
0.0441556
0.0441556
0.0441555
0.0441555
0.0441555
0.0441554
0.0441554
0.0441554
0.0441554
0.0441554
0.0441554
0.0441554
0.0441554
0.0441554
0.0441554
0.0441554
0.0441554
0.0441549
0.0441322
0.049072
0.0482322
0.047546
0.0470249
0.0466545
0.0464056
0.0462465
0.046149
0.0460916
0.0460596
0.0460439
0.0460593
0.0465083
0.0475827
0.0487202
0.0490337
0.0487812
0.0488959
0.0490703
0.0488001
0.0487761
0.0482615
0.0476317
0.0471269
0.0467481
0.0464811
0.0463032
0.0461904
0.0461216
0.046081
0.0460577
0.0460445
0.0460372
0.0460331
0.0460307
0.0460294
0.0460286
0.0460281
0.0460278
0.0460276
0.0460275
0.0460274
0.0460273
0.0460273
0.0460273
0.0460272
0.0460272
0.0460272
0.0460272
0.0460272
0.0460272
0.0460272
0.0460272
0.0460272
0.0460272
0.0460272
0.0460272
0.0460272
0.0460268
0.0460105
0.0493336
0.0487294
0.0482351
0.0478596
0.0475927
0.0474136
0.0472992
0.0472292
0.0471883
0.0471656
0.047155
0.0471701
0.0476408
0.048753
0.049686
0.0497807
0.0496441
0.0496702
0.0497739
0.0496353
0.0495684
0.0489058
0.0484194
0.0480258
0.0477272
0.0475144
0.0473708
0.0472786
0.0472216
0.0471876
0.0471678
0.0471565
0.0471502
0.0471466
0.0471446
0.0471435
0.0471428
0.0471424
0.0471421
0.047142
0.0471419
0.0471418
0.0471417
0.0471417
0.0471417
0.0471417
0.0471417
0.0471417
0.0471416
0.0471416
0.0471416
0.0471416
0.0471416
0.0471416
0.0471416
0.0471416
0.0471416
0.0471416
0.0471414
0.0471293
0.0494986
0.0490435
0.0486711
0.0483883
0.0481875
0.048053
0.0479671
0.0479147
0.047884
0.0478671
0.0478591
0.0478691
0.0482243
0.049009
0.0497906
0.0498316
0.0498007
0.0497704
0.0498301
0.0497993
0.0496702
0.0491821
0.0488227
0.0485277
0.0483016
0.0481389
0.0480284
0.0479568
0.0479123
0.0478856
0.04787
0.047861
0.0478559
0.0478531
0.0478515
0.0478506
0.04785
0.0478497
0.0478495
0.0478494
0.0478493
0.0478492
0.0478492
0.0478492
0.0478492
0.0478491
0.0478491
0.0478491
0.0478491
0.0478491
0.0478491
0.0478491
0.0478491
0.0478491
0.0478491
0.0478491
0.0478491
0.0478491
0.0478489
0.0478397
0.0496092
0.0492543
0.0489639
0.0487435
0.0485871
0.0484824
0.0484156
0.048375
0.0483512
0.0483382
0.0483322
0.0483353
0.0484903
0.0488756
0.0498463
0.0498467
0.0498459
0.049845
0.0498455
0.0498459
0.0497474
0.0493638
0.0490847
0.0488553
0.048679
0.0485518
0.0484652
0.048409
0.048374
0.0483529
0.0483405
0.0483335
0.0483295
0.0483272
0.048326
0.0483252
0.0483248
0.0483245
0.0483244
0.0483243
0.0483242
0.0483242
0.0483242
0.0483241
0.0483241
0.0483241
0.0483241
0.0483241
0.0483241
0.0483241
0.0483241
0.0483241
0.0483241
0.0483241
0.0483241
0.0483241
0.0483241
0.0483241
0.0483239
0.0483167
0.0496869
0.0494025
0.0491697
0.0489932
0.048868
0.0487843
0.048731
0.0486986
0.0486797
0.0486693
0.0486646
0.0486672
0.0487857
0.0490449
0.0498673
0.0498775
0.0498776
0.0498775
0.0498773
0.0498776
0.0497993
0.0494917
0.0492679
0.0490841
0.0489426
0.0488406
0.048771
0.0487259
0.0486978
0.0486809
0.048671
0.0486653
0.0486621
0.0486603
0.0486593
0.0486587
0.0486584
0.0486582
0.0486581
0.048658
0.048658
0.0486579
0.0486579
0.0486579
0.0486579
0.0486579
0.0486579
0.0486579
0.0486579
0.0486579
0.0486579
0.0486579
0.0486579
0.0486579
0.0486579
0.0486579
0.0486579
0.0486579
0.0486577
0.0486519
0.0497435
0.0495106
0.0493199
0.0491754
0.0490729
0.0490045
0.048961
0.0489345
0.0489192
0.0489108
0.0489068
0.0489135
0.0490735
0.0494344
0.0498992
0.0498988
0.0499002
0.0498993
0.0498972
0.0498999
0.0498367
0.0495849
0.0494008
0.0492497
0.0491337
0.0490502
0.0489933
0.0489564
0.0489335
0.0489197
0.0489117
0.0489071
0.0489046
0.0489031
0.0489023
0.0489019
0.0489016
0.0489014
0.0489013
0.0489013
0.0489013
0.0489012
0.0489012
0.0489012
0.0489012
0.0489012
0.0489012
0.0489012
0.0489012
0.0489012
0.0489012
0.0489012
0.0489012
0.0489012
0.0489012
0.0489012
0.0489012
0.0489012
0.0489011
0.0488963
0.0497861
0.0495918
0.0494328
0.0493123
0.049227
0.04917
0.0491338
0.0491118
0.0490991
0.0490921
0.049089
0.0490943
0.0492583
0.049593
0.0499122
0.0499385
0.0499189
0.0499266
0.0499378
0.049917
0.0498745
0.0496547
0.049499
0.0493723
0.0492756
0.0492064
0.0491594
0.049129
0.0491102
0.049099
0.0490924
0.0490887
0.0490866
0.0490855
0.0490848
0.0490845
0.0490843
0.0490842
0.0490841
0.049084
0.049084
0.049084
0.049084
0.049084
0.049084
0.049084
0.049084
0.049084
0.049084
0.049084
0.049084
0.049084
0.049084
0.049084
0.049084
0.049084
0.049084
0.049084
0.0490839
0.0490798
0.0498189
0.0496544
0.0495198
0.0494178
0.0493456
0.0492974
0.0492668
0.0492483
0.0492375
0.0492316
0.0492287
0.04923
0.0492959
0.0494822
0.0499022
0.0498954
0.0498567
0.0498956
0.0498954
0.0498593
0.0498638
0.0496816
0.0495579
0.0494564
0.0493787
0.049323
0.0492852
0.0492608
0.0492456
0.0492366
0.0492314
0.0492284
0.0492268
0.0492259
0.0492254
0.0492251
0.0492249
0.0492248
0.0492248
0.0492248
0.0492247
0.0492247
0.0492247
0.0492247
0.0492247
0.0492247
0.0492247
0.0492247
0.0492247
0.0492247
0.0492247
0.0492247
0.0492247
0.0492247
0.0492247
0.0492247
0.0492247
0.0492247
0.0492246
0.0492212
0.0498447
0.0497037
0.0495882
0.0495008
0.0494389
0.0493977
0.0493715
0.0493556
0.0493463
0.0493411
0.0493383
0.0493375
0.04935
0.0494775
0.0497035
0.0497869
0.0496916
0.0497283
0.0497805
0.0497804
0.0497781
0.0496554
0.0495689
0.0494982
0.0494439
0.0494048
0.0493782
0.049361
0.0493503
0.0493439
0.0493401
0.049338
0.0493368
0.0493362
0.0493358
0.0493356
0.0493355
0.0493354
0.0493354
0.0493354
0.0493354
0.0493354
0.0493353
0.0493353
0.0493353
0.0493353
0.0493353
0.0493353
0.0493353
0.0493353
0.0493353
0.0493353
0.0493353
0.0493353
0.0493353
0.0493353
0.0493353
0.0493353
0.0493353
0.0493323
0.0498654
0.0497431
0.049643
0.0495672
0.0495136
0.0494778
0.0494551
0.0494413
0.0494333
0.0494287
0.0494262
0.0494249
0.0494262
0.0494523
0.049489
0.0495135
0.0495157
0.0495252
0.0495325
0.0495374
0.0495396
0.0495242
0.0495046
0.0494846
0.0494671
0.049453
0.0494427
0.0494356
0.049431
0.049428
0.0494263
0.0494252
0.0494246
0.0494242
0.049424
0.0494239
0.0494239
0.0494238
0.0494238
0.0494238
0.0494238
0.0494238
0.0494238
0.0494238
0.0494238
0.0494238
0.0494237
0.0494237
0.0494237
0.0494237
0.0494237
0.0494237
0.0494237
0.0494237
0.0494237
0.0494237
0.0494237
0.0494237
0.0494237
0.0494211
0.0498822
0.049775
0.0496873
0.0496207
0.0495736
0.0495421
0.0495221
0.0495099
0.0495028
0.0494987
0.0494964
0.0494951
0.0494947
0.0494972
0.0495024
0.0495078
0.049511
0.0495134
0.0495154
0.0495167
0.0495175
0.0495164
0.0495136
0.0495101
0.0495063
0.049503
0.0495003
0.0494983
0.0494969
0.0494959
0.0494953
0.0494949
0.0494947
0.0494946
0.0494945
0.0494944
0.0494944
0.0494944
0.0494943
0.0494943
0.0494943
0.0494943
0.0494943
0.0494943
0.0494943
0.0494943
0.0494943
0.0494943
0.0494943
0.0494943
0.0494943
0.0494943
0.0494943
0.0494943
0.0494943
0.0494943
0.0494943
0.0494943
0.0494943
0.049492
0.0498957
0.0498005
0.0497219
0.0496618
0.0496187
0.0495897
0.049571
0.0495595
0.0495526
0.0495486
0.0495464
0.0495451
0.0495444
0.0495444
0.049545
0.049546
0.0495469
0.0495477
0.0495483
0.0495485
0.0495486
0.0495485
0.0495481
0.0495476
0.0495469
0.0495463
0.0495457
0.0495453
0.0495449
0.0495447
0.0495445
0.0495444
0.0495443
0.0495443
0.0495442
0.0495442
0.0495442
0.0495442
0.0495442
0.0495442
0.0495441
0.0495441
0.0495441
0.0495441
0.0495441
0.0495441
0.0495441
0.0495441
0.0495441
0.0495441
0.0495441
0.0495441
0.0495441
0.0495441
0.0495441
0.0495441
0.0495441
0.0495441
0.0495441
0.049542
0.0499055
0.0498168
0.0497412
0.0496814
0.049637
0.0496058
0.049585
0.0495718
0.0495636
0.0495588
0.0495559
0.0495543
0.0495534
0.049553
0.0495529
0.0495538
0.0495546
0.0495552
0.0495557
0.0495552
0.0495548
0.0495544
0.0495541
0.0495538
0.0495536
0.0495534
0.0495532
0.0495531
0.049553
0.0495529
0.0495529
0.0495528
0.0495528
0.0495527
0.0495527
0.0495527
0.0495527
0.0495527
0.0495527
0.0495527
0.0495527
0.0495527
0.0495527
0.0495527
0.0495527
0.0495527
0.0495527
0.0495527
0.0495527
0.0495527
0.0495527
0.0495527
0.0495527
0.0495527
0.0495527
0.0495527
0.0495527
0.0495527
0.0495526
0.0495507
0.0248234
0.0156506
0.0115636
0.00953912
0.00850787
0.00798434
0.00772562
0.00760066
0.00754119
0.00751224
0.00749679
0.00748641
0.00747679
0.00746591
0.0074531
0.00743902
0.00742572
0.00741518
0.00741172
0.00741732
0.00742965
0.00744684
0.00746394
0.00747796
0.00748875
0.00749536
0.00749982
0.00750227
0.00750348
0.00750404
0.00750419
0.00750388
0.00750382
0.00750364
0.00750331
0.00750317
0.00750305
0.00750278
0.00750268
0.00750256
0.00750268
0.00750261
0.00750257
0.00750254
0.00750253
0.00750253
0.00750253
0.00750253
0.00750252
0.00750252
0.00750252
0.00750252
0.00750252
0.00750252
0.00750252
0.00750252
0.00750252
0.00750252
0.00750239
0.0074913
0.0408381
0.0346821
0.0306795
0.0281209
0.0265339
0.0255848
0.0250377
0.0247325
0.0245654
0.024474
0.0244206
0.0243836
0.0243506
0.0243179
0.0242837
0.0242553
0.024236
0.0242254
0.0242241
0.0242364
0.0242595
0.0242918
0.0243254
0.0243554
0.0243794
0.024397
0.0244093
0.0244175
0.024423
0.0244262
0.0244277
0.0244288
0.0244287
0.0244287
0.0244286
0.0244283
0.0244281
0.0244278
0.0244277
0.0244275
0.0244273
0.0244272
0.0244272
0.0244271
0.0244271
0.0244271
0.0244271
0.0244271
0.0244271
0.0244271
0.0244271
0.0244271
0.0244271
0.0244271
0.0244271
0.0244271
0.0244271
0.0244271
0.0244264
0.0243899
0.0458529
0.042457
0.0399301
0.0381607
0.0369877
0.0362483
0.035802
0.0355421
0.0353948
0.0353119
0.0352632
0.0352299
0.0352012
0.0351904
0.0351874
0.0351912
0.0352008
0.0352106
0.0352201
0.0352395
0.0352629
0.0352758
0.0352804
0.0352797
0.0352768
0.0352739
0.0352715
0.03527
0.0352688
0.0352681
0.0352673
0.0352666
0.0352659
0.0352651
0.0352645
0.0352642
0.0352637
0.0352634
0.0352632
0.035263
0.0352629
0.0352627
0.0352626
0.0352626
0.0352625
0.0352625
0.0352625
0.0352625
0.0352625
0.0352625
0.0352625
0.0352625
0.0352625
0.0352625
0.0352625
0.0352625
0.0352625
0.0352625
0.0352616
0.0352223
0.0477697
0.0458262
0.0443024
0.0431917
0.0424319
0.0419402
0.0416364
0.0414563
0.0413527
0.041295
0.0412646
0.0412479
0.0412496
0.0414996
0.0417526
0.0419295
0.0420484
0.042116
0.0421486
0.0421737
0.0421907
0.041989
0.0417904
0.0416211
0.0414922
0.0414022
0.0413434
0.0413069
0.0412851
0.0412724
0.0412649
0.0412605
0.0412579
0.0412561
0.0412551
0.0412543
0.0412538
0.0412534
0.0412531
0.0412529
0.0412528
0.0412526
0.0412526
0.0412526
0.0412525
0.0412525
0.0412525
0.0412525
0.0412525
0.0412525
0.0412525
0.0412525
0.0412525
0.0412525
0.0412525
0.0412525
0.0412525
0.0412525
0.0412518
0.0412209
0.0486317
0.0474185
0.0464521
0.0457382
0.0452445
0.0449219
0.0447211
0.0446013
0.0445327
0.044497
0.0444834
0.044495
0.0447174
0.0453569
0.0464493
0.0468818
0.0470059
0.0471011
0.0470918
0.0470772
0.0470909
0.0467614
0.0460326
0.0454864
0.0451017
0.0448463
0.0446856
0.0445891
0.0445332
0.0445016
0.0444841
0.0444745
0.0444692
0.0444662
0.0444645
0.0444635
0.0444629
0.0444625
0.0444622
0.044462
0.0444619
0.0444618
0.0444617
0.0444617
0.0444617
0.0444616
0.0444616
0.0444616
0.0444616
0.0444616
0.0444616
0.0444616
0.0444616
0.0444616
0.0444616
0.0444616
0.0444616
0.0444616
0.0444611
0.044439
0.0490791
0.0482587
0.0476025
0.0471164
0.0467797
0.0465593
0.0464221
0.0463402
0.0462937
0.0462701
0.0462636
0.0462979
0.0468409
0.0480648
0.049206
0.0491846
0.0489662
0.0491506
0.0492067
0.0489976
0.0491662
0.0484223
0.0477639
0.0472559
0.0468886
0.0466388
0.0464778
0.0463789
0.0463202
0.0462866
0.0462677
0.0462572
0.0462514
0.0462482
0.0462464
0.0462453
0.0462447
0.0462443
0.0462441
0.0462439
0.0462438
0.0462437
0.0462437
0.0462436
0.0462436
0.0462436
0.0462436
0.0462436
0.0462436
0.0462436
0.0462436
0.0462436
0.0462436
0.0462436
0.0462436
0.0462436
0.0462436
0.0462436
0.0462432
0.0462274
0.0493388
0.0487488
0.0482765
0.0479266
0.0476844
0.0475261
0.0474276
0.0473689
0.0473355
0.047318
0.0473117
0.0473336
0.0478762
0.0491658
0.0499079
0.049901
0.0498473
0.0498601
0.049895
0.0498471
0.0498031
0.0489853
0.0484935
0.0481046
0.0478188
0.0476217
0.0474929
0.0474126
0.0473643
0.0473363
0.0473203
0.0473114
0.0473064
0.0473036
0.047302
0.0473011
0.0473006
0.0473003
0.0473001
0.0472999
0.0472998
0.0472998
0.0472997
0.0472997
0.0472997
0.0472997
0.0472997
0.0472997
0.0472997
0.0472997
0.0472997
0.0472997
0.0472997
0.0472997
0.0472997
0.0472997
0.0472997
0.0472997
0.0472994
0.0472877
0.0495025
0.0490583
0.0487026
0.0484393
0.0482572
0.0481383
0.0480645
0.0480205
0.0479953
0.0479817
0.0479755
0.0479884
0.0484022
0.0494007
0.049911
0.049889
0.049807
0.0498485
0.0498881
0.0498047
0.0498171
0.0492408
0.0488774
0.0485858
0.0483693
0.0482187
0.0481197
0.0480575
0.0480199
0.0479979
0.0479853
0.0479782
0.0479742
0.047972
0.0479707
0.04797
0.0479696
0.0479693
0.0479691
0.047969
0.047969
0.0479689
0.0479689
0.0479689
0.0479689
0.0479688
0.0479688
0.0479688
0.0479688
0.0479688
0.0479688
0.0479688
0.0479688
0.0479688
0.0479688
0.0479688
0.0479688
0.0479688
0.0479686
0.0479597
0.0496123
0.0492659
0.0489886
0.0487834
0.0486416
0.0485492
0.0484919
0.0484577
0.0484381
0.0484274
0.0484223
0.0484307
0.0486949
0.0494
0.0498889
0.0498773
0.0498508
0.0498574
0.0498749
0.049849
0.0498567
0.0494094
0.0491273
0.0489005
0.0487317
0.048614
0.0485364
0.0484876
0.048458
0.0484406
0.0484307
0.0484251
0.0484219
0.0484202
0.0484192
0.0484186
0.0484183
0.0484181
0.0484179
0.0484179
0.0484178
0.0484178
0.0484178
0.0484177
0.0484177
0.0484177
0.0484177
0.0484177
0.0484177
0.0484177
0.0484177
0.0484177
0.0484177
0.0484177
0.0484177
0.0484177
0.0484177
0.0484177
0.0484175
0.0484106
0.0496894
0.0494118
0.0491896
0.0490253
0.0489119
0.048838
0.0487922
0.048765
0.0487494
0.0487408
0.0487368
0.0487439
0.0489464
0.0494777
0.0498908
0.0498839
0.0498807
0.049881
0.0498814
0.0498794
0.0498856
0.0495278
0.0493017
0.04912
0.0489847
0.0488903
0.0488281
0.0487889
0.0487652
0.0487513
0.0487433
0.0487388
0.0487363
0.0487349
0.0487341
0.0487337
0.0487334
0.0487333
0.0487332
0.0487331
0.0487331
0.048733
0.048733
0.048733
0.048733
0.048733
0.048733
0.048733
0.048733
0.048733
0.048733
0.048733
0.048733
0.048733
0.048733
0.048733
0.048733
0.048733
0.0487329
0.0487272
0.0497456
0.0495182
0.0493363
0.0492018
0.049109
0.0490486
0.0490112
0.048989
0.0489764
0.0489695
0.0489664
0.0489736
0.0491859
0.0496653
0.049941
0.0499307
0.0499041
0.0499124
0.0499296
0.0499027
0.0499072
0.0496135
0.0494274
0.0492784
0.0491678
0.0490908
0.04904
0.0490081
0.0489888
0.0489775
0.048971
0.0489674
0.0489654
0.0489643
0.0489637
0.0489633
0.0489631
0.048963
0.0489629
0.0489629
0.0489628
0.0489628
0.0489628
0.0489628
0.0489628
0.0489628
0.0489628
0.0489628
0.0489628
0.0489628
0.0489628
0.0489628
0.0489628
0.0489628
0.0489628
0.0489628
0.0489628
0.0489628
0.0489627
0.048958
0.0497878
0.0495982
0.0494465
0.0493344
0.0492571
0.0492068
0.0491757
0.0491573
0.0491469
0.0491413
0.0491389
0.0491456
0.0493347
0.0497597
0.0499891
0.0499558
0.0499217
0.0499487
0.0499544
0.0499202
0.0499394
0.0496785
0.0495206
0.0493959
0.049304
0.0492403
0.0491985
0.0491723
0.0491565
0.0491472
0.049142
0.049139
0.0491374
0.0491365
0.049136
0.0491358
0.0491356
0.0491355
0.0491354
0.0491354
0.0491354
0.0491354
0.0491354
0.0491354
0.0491354
0.0491353
0.0491353
0.0491353
0.0491353
0.0491353
0.0491353
0.0491353
0.0491353
0.0491353
0.0491353
0.0491353
0.0491353
0.0491353
0.0491353
0.0491314
0.0498204
0.0496598
0.0495314
0.0494365
0.0493711
0.0493286
0.0493024
0.0492869
0.049278
0.0492731
0.0492706
0.0492736
0.049403
0.0497155
0.0499801
0.0499537
0.0499329
0.0499379
0.0499534
0.0499336
0.049961
0.0497127
0.0495825
0.0494803
0.0494052
0.0493533
0.0493192
0.049298
0.0492852
0.0492777
0.0492735
0.0492711
0.0492698
0.0492691
0.0492687
0.0492685
0.0492684
0.0492683
0.0492683
0.0492683
0.0492682
0.0492682
0.0492682
0.0492682
0.0492682
0.0492682
0.0492682
0.0492682
0.0492682
0.0492682
0.0492682
0.0492682
0.0492682
0.0492682
0.0492682
0.0492682
0.0492682
0.0492682
0.0492681
0.0492649
0.049846
0.0497083
0.0495982
0.0495169
0.0494608
0.0494244
0.049402
0.0493887
0.049381
0.0493768
0.0493743
0.0493734
0.049403
0.049549
0.0497682
0.049812
0.0497931
0.0498
0.049813
0.0498055
0.0498187
0.0496778
0.0495905
0.0495209
0.0494691
0.0494329
0.049409
0.0493939
0.0493848
0.0493795
0.0493765
0.0493748
0.0493738
0.0493733
0.0493731
0.0493729
0.0493728
0.0493728
0.0493727
0.0493727
0.0493727
0.0493727
0.0493727
0.0493727
0.0493727
0.0493727
0.0493727
0.0493727
0.0493727
0.0493727
0.0493727
0.0493727
0.0493727
0.0493727
0.0493727
0.0493727
0.0493727
0.0493727
0.0493726
0.0493698
0.0498665
0.0497471
0.0496516
0.0495811
0.0495326
0.0495011
0.0494816
0.04947
0.0494634
0.0494597
0.0494576
0.0494563
0.0494589
0.0494838
0.0495172
0.0495398
0.0495503
0.0495567
0.0495608
0.0495633
0.0495641
0.0495484
0.0495291
0.04951
0.0494937
0.049481
0.049472
0.0494659
0.0494619
0.0494596
0.0494581
0.0494573
0.0494568
0.0494565
0.0494564
0.0494563
0.0494562
0.0494562
0.0494562
0.0494562
0.0494562
0.0494562
0.0494562
0.0494562
0.0494562
0.0494562
0.0494562
0.0494562
0.0494562
0.0494562
0.0494562
0.0494562
0.0494562
0.0494562
0.0494562
0.0494562
0.0494562
0.0494562
0.0494561
0.0494536
0.0498831
0.0497786
0.0496949
0.049633
0.0495903
0.0495626
0.0495454
0.0495353
0.0495294
0.0495261
0.0495242
0.0495231
0.049523
0.0495253
0.0495308
0.0495361
0.0495398
0.0495422
0.0495438
0.049544
0.049544
0.0495425
0.0495398
0.0495364
0.049533
0.0495301
0.0495278
0.0495261
0.049525
0.0495242
0.0495237
0.0495234
0.0495232
0.0495231
0.049523
0.049523
0.049523
0.0495229
0.0495229
0.0495229
0.0495229
0.0495229
0.0495229
0.0495229
0.0495229
0.0495229
0.0495229
0.0495229
0.0495229
0.0495229
0.0495229
0.0495229
0.0495229
0.0495229
0.0495229
0.0495229
0.0495229
0.0495229
0.0495228
0.0495207
0.0498966
0.0498036
0.0497286
0.0496727
0.0496338
0.0496082
0.0495922
0.0495825
0.049577
0.0495738
0.049572
0.049571
0.0495706
0.0495706
0.0495718
0.0495731
0.0495742
0.0495749
0.0495754
0.0495751
0.0495747
0.0495743
0.0495738
0.0495733
0.0495727
0.0495722
0.0495717
0.0495713
0.0495711
0.0495709
0.0495707
0.0495706
0.0495706
0.0495705
0.0495705
0.0495705
0.0495705
0.0495705
0.0495705
0.0495704
0.0495704
0.0495704
0.0495704
0.0495704
0.0495704
0.0495704
0.0495704
0.0495704
0.0495704
0.0495704
0.0495704
0.0495704
0.0495704
0.0495704
0.0495704
0.0495704
0.0495704
0.0495704
0.0495704
0.0495684
0.0499062
0.0498194
0.0497472
0.0496913
0.0496509
0.0496233
0.0496054
0.0495943
0.0495876
0.0495837
0.0495815
0.0495802
0.0495797
0.0495795
0.04958
0.0495806
0.0495811
0.0495816
0.0495819
0.0495815
0.049581
0.0495805
0.0495802
0.04958
0.0495798
0.0495796
0.0495795
0.0495794
0.0495793
0.0495793
0.0495792
0.0495792
0.0495792
0.0495791
0.0495791
0.0495791
0.0495791
0.0495791
0.0495791
0.0495791
0.0495791
0.0495791
0.0495791
0.0495791
0.0495791
0.0495791
0.0495791
0.0495791
0.0495791
0.0495791
0.0495791
0.0495791
0.0495791
0.0495791
0.0495791
0.0495791
0.0495791
0.0495791
0.049579
0.0495772
0.0248238
0.0156528
0.0115689
0.00954889
0.00852207
0.00800207
0.0077461
0.00762319
0.00756517
0.00753735
0.00752286
0.00751343
0.0075049
0.00749521
0.00748346
0.0074703
0.00745767
0.00744755
0.00744347
0.00744728
0.00745775
0.00747342
0.00748949
0.00750309
0.00751352
0.00752008
0.00752433
0.0075267
0.00752786
0.00752852
0.00752858
0.0075285
0.00752836
0.0075283
0.00752795
0.00752784
0.00752774
0.00752749
0.00752741
0.0075273
0.00752743
0.00752736
0.00752732
0.0075273
0.00752729
0.00752729
0.00752728
0.00752728
0.00752728
0.00752728
0.00752728
0.00752728
0.00752728
0.00752728
0.00752728
0.00752728
0.00752728
0.00752728
0.00752715
0.00751603
0.0408416
0.0346949
0.0307076
0.028168
0.0266003
0.0256684
0.0251352
0.0248402
0.0246806
0.0245945
0.0245456
0.0245123
0.0244828
0.0244523
0.0244202
0.0243931
0.0243744
0.0243634
0.0243604
0.024368
0.0243865
0.0244155
0.0244476
0.0244766
0.0245004
0.0245179
0.0245304
0.024539
0.0245445
0.024548
0.0245498
0.0245508
0.0245511
0.0245512
0.0245511
0.0245508
0.0245508
0.0245505
0.0245504
0.0245502
0.0245501
0.02455
0.0245499
0.0245499
0.0245499
0.0245499
0.0245499
0.0245499
0.0245499
0.0245499
0.0245499
0.0245499
0.0245499
0.0245499
0.0245499
0.0245499
0.0245499
0.0245499
0.0245492
0.0245127
0.0458569
0.0424718
0.0399625
0.0382145
0.0370636
0.0363435
0.0359127
0.0356646
0.0355258
0.0354495
0.0354066
0.0353783
0.0353532
0.0353429
0.0353413
0.0353446
0.0353526
0.0353603
0.0353668
0.035378
0.0353947
0.0354051
0.0354101
0.0354106
0.0354095
0.0354083
0.0354076
0.0354075
0.0354072
0.0354073
0.035407
0.0354067
0.0354063
0.0354057
0.0354052
0.035405
0.0354046
0.0354043
0.0354041
0.0354039
0.0354038
0.0354037
0.0354036
0.0354036
0.0354035
0.0354035
0.0354035
0.0354035
0.0354035
0.0354035
0.0354035
0.0354035
0.0354035
0.0354035
0.0354035
0.0354035
0.0354035
0.0354035
0.0354027
0.0353635
0.0477727
0.0458377
0.0443279
0.0432345
0.0424924
0.0420164
0.0417254
0.0415548
0.0414586
0.0414085
0.0413864
0.0413787
0.0413844
0.0416207
0.0418763
0.0420421
0.0421491
0.0422084
0.0422344
0.0422495
0.0422612
0.0420637
0.041872
0.0417093
0.0415865
0.0415019
0.0414475
0.0414143
0.0413949
0.0413837
0.0413773
0.0413736
0.0413714
0.04137
0.041369
0.0413684
0.041368
0.0413676
0.0413674
0.0413672
0.0413671
0.041367
0.0413669
0.0413669
0.0413669
0.0413668
0.0413668
0.0413668
0.0413668
0.0413668
0.0413668
0.0413668
0.0413668
0.0413668
0.0413668
0.0413668
0.0413668
0.0413668
0.0413661
0.0413356
0.0486337
0.0474266
0.0464702
0.0457687
0.0452878
0.0449768
0.0447852
0.0446723
0.0446096
0.0445789
0.0445718
0.0445971
0.0448241
0.0454643
0.0465623
0.0469394
0.0470305
0.0470879
0.0470916
0.0470872
0.0471147
0.0467987
0.046074
0.0455333
0.0451552
0.0449069
0.0447527
0.0446613
0.0446091
0.0445801
0.0445643
0.0445558
0.0445511
0.0445486
0.0445471
0.0445462
0.0445456
0.0445452
0.044545
0.0445449
0.0445447
0.0445446
0.0445446
0.0445445
0.0445445
0.0445445
0.0445445
0.0445445
0.0445445
0.0445445
0.0445445
0.0445445
0.0445445
0.0445445
0.0445445
0.0445445
0.0445445
0.0445445
0.044544
0.0445223
0.0490805
0.0482644
0.0476154
0.0471382
0.0468106
0.0465985
0.0464678
0.0463909
0.0463482
0.046328
0.0463265
0.0463747
0.04694
0.0481493
0.0492355
0.0491891
0.0489686
0.0491349
0.0491936
0.0490027
0.049354
0.0484621
0.0477938
0.0472846
0.0469209
0.0466767
0.0465215
0.0464274
0.0463725
0.0463415
0.0463243
0.0463149
0.0463098
0.0463069
0.0463054
0.0463045
0.0463039
0.0463036
0.0463033
0.0463032
0.0463031
0.046303
0.046303
0.0463029
0.0463029
0.0463029
0.0463029
0.0463029
0.0463029
0.0463029
0.0463029
0.0463029
0.0463029
0.0463029
0.0463029
0.0463029
0.0463029
0.0463029
0.0463025
0.046287
0.0493399
0.048753
0.048286
0.0479426
0.0477072
0.0475549
0.0474612
0.047406
0.047375
0.0473592
0.0473543
0.0473792
0.0479304
0.0492804
0.0498586
0.0497939
0.0497088
0.0497322
0.0497934
0.0497095
0.0499388
0.0489848
0.0484973
0.0481147
0.0478358
0.0476453
0.0475223
0.0474466
0.0474018
0.047376
0.0473616
0.0473536
0.0473491
0.0473467
0.0473453
0.0473445
0.0473441
0.0473438
0.0473436
0.0473435
0.0473434
0.0473433
0.0473433
0.0473433
0.0473433
0.0473433
0.0473432
0.0473432
0.0473432
0.0473432
0.0473432
0.0473432
0.0473432
0.0473432
0.0473432
0.0473432
0.0473432
0.0473432
0.047343
0.0473315
0.0495033
0.0490615
0.0487098
0.0484515
0.0482745
0.0481602
0.04809
0.0480485
0.0480249
0.0480119
0.048005
0.0480146
0.0484354
0.0494426
0.0496426
0.0495194
0.0494889
0.0494982
0.0494892
0.0494922
0.0497841
0.0492408
0.0488798
0.0485926
0.0483813
0.0482359
0.0481415
0.048083
0.0480481
0.0480279
0.0480165
0.0480102
0.0480066
0.0480047
0.0480036
0.0480029
0.0480026
0.0480023
0.0480022
0.0480021
0.048002
0.048002
0.048002
0.0480019
0.0480019
0.0480019
0.0480019
0.0480019
0.0480019
0.0480019
0.0480019
0.0480019
0.0480019
0.0480019
0.0480019
0.0480019
0.0480019
0.0480019
0.0480017
0.047993
0.0496129
0.0492684
0.0489943
0.048793
0.0486552
0.0485664
0.0485118
0.0484796
0.0484611
0.0484505
0.0484443
0.04845
0.0487767
0.0495297
0.0497186
0.0496126
0.0495831
0.049574
0.0495599
0.0495765
0.0498325
0.0494102
0.0491297
0.048906
0.0487411
0.0486274
0.0485534
0.0485075
0.0484801
0.0484642
0.0484551
0.0484501
0.0484473
0.0484458
0.0484449
0.0484444
0.0484441
0.0484439
0.0484438
0.0484437
0.0484437
0.0484437
0.0484436
0.0484436
0.0484436
0.0484436
0.0484436
0.0484436
0.0484436
0.0484436
0.0484436
0.0484436
0.0484436
0.0484436
0.0484436
0.0484436
0.0484436
0.0484436
0.0484434
0.0484366
0.0496899
0.0494138
0.0491942
0.049033
0.0489228
0.0488518
0.0488082
0.0487826
0.0487679
0.0487594
0.0487545
0.0487599
0.0490233
0.0496195
0.0497782
0.0496964
0.0496685
0.0496582
0.0496478
0.0496585
0.0498668
0.0495282
0.0493034
0.0491242
0.0489921
0.048901
0.0488417
0.0488049
0.0487829
0.0487702
0.048763
0.048759
0.0487567
0.0487555
0.0487548
0.0487544
0.0487542
0.048754
0.0487539
0.0487539
0.0487539
0.0487538
0.0487538
0.0487538
0.0487538
0.0487538
0.0487538
0.0487538
0.0487538
0.0487538
0.0487538
0.0487538
0.0487538
0.0487538
0.0487538
0.0487538
0.0487538
0.0487538
0.0487537
0.0487481
0.049746
0.0495199
0.04934
0.0492081
0.0491179
0.0490599
0.0490244
0.0490035
0.0489916
0.048985
0.0489814
0.0489867
0.0492099
0.0496953
0.0498176
0.0497485
0.0497355
0.0497324
0.0497203
0.0497317
0.0498921
0.0496132
0.0494283
0.0492816
0.0491738
0.0490995
0.0490512
0.0490212
0.0490034
0.048993
0.0489872
0.0489839
0.0489821
0.0489811
0.0489806
0.0489803
0.0489801
0.04898
0.0489799
0.0489799
0.0489799
0.0489799
0.0489798
0.0489798
0.0489798
0.0489798
0.0489798
0.0489798
0.0489798
0.0489798
0.0489798
0.0489798
0.0489798
0.0489798
0.0489798
0.0489798
0.0489798
0.0489798
0.0489797
0.0489752
0.0497882
0.0495996
0.0494496
0.0493397
0.0492646
0.0492163
0.0491867
0.0491694
0.0491596
0.0491543
0.0491519
0.0491583
0.0493471
0.0497567
0.0499072
0.0498463
0.049817
0.0498478
0.0498391
0.0498169
0.0499388
0.0496776
0.0495214
0.0493989
0.0493093
0.0492478
0.049208
0.0491834
0.0491687
0.0491602
0.0491555
0.0491529
0.0491514
0.0491506
0.0491502
0.0491499
0.0491498
0.0491497
0.0491497
0.0491496
0.0491496
0.0491496
0.0491496
0.0491496
0.0491496
0.0491496
0.0491496
0.0491496
0.0491496
0.0491496
0.0491496
0.0491496
0.0491496
0.0491496
0.0491496
0.0491496
0.0491496
0.0491496
0.0491495
0.0491457
0.0498207
0.049661
0.0495341
0.049441
0.0493775
0.0493367
0.0493117
0.0492971
0.0492888
0.0492842
0.0492815
0.049284
0.0494398
0.0497874
0.0499888
0.049948
0.0499245
0.0499315
0.049947
0.0499249
0.0499837
0.0497167
0.0495868
0.0494853
0.0494113
0.0493607
0.0493279
0.0493077
0.0492957
0.0492888
0.049285
0.0492829
0.0492817
0.0492811
0.0492807
0.0492805
0.0492804
0.0492804
0.0492803
0.0492803
0.0492803
0.0492803
0.0492803
0.0492803
0.0492803
0.0492803
0.0492803
0.0492803
0.0492803
0.0492803
0.0492803
0.0492803
0.0492803
0.0492803
0.0492803
0.0492803
0.0492803
0.0492803
0.0492802
0.049277
0.0498462
0.0497093
0.0496005
0.0495207
0.0494663
0.0494313