/*--------------------------------*- C++ -*----------------------------------*\
  =========                 |
  \\      /  F ield         | OpenFOAM: The Open Source CFD Toolbox
   \\    /   O peration     | Website:  https://openfoam.org
    \\  /    A nd           | Version:  13
     \\/     M anipulation  |
\*---------------------------------------------------------------------------*/
FoamFile
{
    format      ascii;
    class       volScalarField;
    location    "7";
    object      p;
}
// * * * * * * * * * * * * * * * * * * * * * * * * * * * * * * * * * * * * * //

dimensions      [0 2 -2 0 0 0 0];

internalField   nonuniform List<scalar> 
54636
(
-9.56721e-13
-9.64214e-13
-9.82904e-13
-9.9077e-13
-9.81704e-13
-1.0243e-12
-9.85635e-13
-9.73754e-13
-1.02616e-12
-1.01293e-12
-9.73338e-13
-9.82383e-13
-9.47471e-13
-9.42381e-13
-9.30384e-13
-9.24066e-13
-9.21859e-13
-8.87086e-13
-8.78428e-13
-9.17526e-13
-9.39406e-13
-9.34316e-13
-9.22972e-13
-8.96106e-13
-9.03256e-13
-9.41772e-13
-9.58941e-13
-9.25846e-13
-9.62349e-13
-9.54049e-13
-9.87499e-13
-9.94915e-13
-1.00545e-12
-1.06244e-12
-1.03761e-12
-1.09026e-12
-1.09862e-12
-1.03519e-12
-1.01249e-12
-9.78336e-13
-9.12014e-13
-9.14377e-13
-9.091e-13
-8.72742e-13
-8.58817e-13
-8.34161e-13
-8.0243e-13
-7.29389e-13
-6.76238e-13
-6.16567e-13
-5.48568e-13
-4.81981e-13
-4.19747e-13
-3.52934e-13
-3.15398e-13
-2.70879e-13
-2.12146e-13
-1.43179e-13
-9.55933e-14
-3.36264e-14
-9.55121e-13
-9.64522e-13
-9.74841e-13
-9.97474e-13
-9.84438e-13
-1.02975e-12
-1.00648e-12
-9.71798e-13
-1.02894e-12
-9.9244e-13
-9.79214e-13
-9.73638e-13
-9.55146e-13
-9.34311e-13
-9.2514e-13
-9.2132e-13
-9.21372e-13
-8.98187e-13
-8.77288e-13
-9.12701e-13
-9.41435e-13
-9.42538e-13
-9.23075e-13
-9.08072e-13
-9.03036e-13
-9.42376e-13
-9.47986e-13
-9.28742e-13
-9.51357e-13
-9.59782e-13
-9.85711e-13
-9.96264e-13
-1.00868e-12
-1.0611e-12
-1.04893e-12
-1.08471e-12
-1.09619e-12
-1.02202e-12
-1.01876e-12
-9.76437e-13
-9.22351e-13
-9.17223e-13
-9.16347e-13
-8.74787e-13
-8.52955e-13
-8.38354e-13
-8.01806e-13
-7.35832e-13
-6.64766e-13
-6.14036e-13
-5.44495e-13
-4.85246e-13
-4.17621e-13
-3.62538e-13
-3.18803e-13
-2.68139e-13
-2.037e-13
-1.42187e-13
-9.98778e-14
-3.02509e-14
-9.52016e-13
-9.64448e-13
-9.8147e-13
-1.0059e-12
-9.88065e-13
-1.02686e-12
-1.01189e-12
-9.82549e-13
-1.01791e-12
-9.94266e-13
-9.63512e-13
-9.81533e-13
-9.68392e-13
-9.28123e-13
-9.19549e-13
-9.13312e-13
-9.33462e-13
-8.89751e-13
-8.71634e-13
-9.18551e-13
-9.62509e-13
-9.43036e-13
-9.29152e-13
-9.06189e-13
-9.10802e-13
-9.34581e-13
-9.46691e-13
-9.32859e-13
-9.26946e-13
-9.6179e-13
-9.84508e-13
-9.91828e-13
-1.02001e-12
-1.05258e-12
-1.06784e-12
-1.08065e-12
-1.06756e-12
-1.01208e-12
-1.02102e-12
-9.79299e-13
-9.36404e-13
-9.11544e-13
-9.10418e-13
-8.86363e-13
-8.5078e-13
-8.34594e-13
-7.97215e-13
-7.51255e-13
-6.59114e-13
-5.94504e-13
-5.4095e-13
-4.87464e-13
-4.19043e-13
-3.64552e-13
-3.1866e-13
-2.66831e-13
-2.04468e-13
-1.42084e-13
-1.01854e-13
-3.05944e-14
-9.54768e-13
-9.71057e-13
-9.8307e-13
-9.91699e-13
-1.00543e-12
-1.0227e-12
-1.01149e-12
-1.00279e-12
-1.01679e-12
-9.7251e-13
-9.61175e-13
-9.81108e-13
-9.7166e-13
-9.20419e-13
-9.23825e-13
-9.11025e-13
-9.51115e-13
-9.12264e-13
-8.65873e-13
-9.13087e-13
-9.69451e-13
-9.36015e-13
-9.23197e-13
-9.16146e-13
-9.19177e-13
-9.32441e-13
-9.3496e-13
-9.33082e-13
-9.20455e-13
-9.83547e-13
-9.67578e-13
-9.92556e-13
-1.04011e-12
-1.05231e-12
-1.06911e-12
-1.07295e-12
-1.05193e-12
-1.01269e-12
-1.0232e-12
-9.92848e-13
-9.32009e-13
-9.18034e-13
-9.10507e-13
-8.9456e-13
-8.5458e-13
-8.28806e-13
-7.92278e-13
-7.50084e-13
-6.679e-13
-5.90473e-13
-5.45547e-13
-4.74684e-13
-4.20926e-13
-3.67349e-13
-3.1621e-13
-2.73808e-13
-2.04172e-13
-1.39138e-13
-1.00882e-13
-3.19975e-14
-9.2764e-13
-9.72795e-13
-9.72364e-13
-9.95829e-13
-1.02927e-12
-1.02186e-12
-9.96815e-13
-9.96999e-13
-1.02214e-12
-9.74384e-13
-9.57432e-13
-9.82052e-13
-9.75748e-13
-9.2716e-13
-9.12956e-13
-9.16128e-13
-9.55399e-13
-9.24216e-13
-8.71914e-13
-8.9174e-13
-9.4662e-13
-9.38202e-13
-9.22554e-13
-9.20203e-13
-9.08466e-13
-9.29959e-13
-9.34124e-13
-9.28975e-13
-9.43195e-13
-9.78568e-13
-9.74935e-13
-9.98836e-13
-1.03037e-12
-1.04594e-12
-1.0548e-12
-1.05614e-12
-1.05536e-12
-1.01008e-12
-1.02598e-12
-9.9055e-13
-9.36868e-13
-9.15332e-13
-9.03388e-13
-8.95312e-13
-8.58554e-13
-8.2167e-13
-7.857e-13
-7.5964e-13
-6.71207e-13
-5.70855e-13
-5.33668e-13
-4.90702e-13
-4.2695e-13
-3.58717e-13
-3.14935e-13
-2.80898e-13
-2.21969e-13
-1.36167e-13
-8.98812e-14
-3.16309e-14
-9.35507e-13
-9.78837e-13
-9.84484e-13
-9.95586e-13
-1.01676e-12
-1.02751e-12
-1.00195e-12
-9.93169e-13
-1.01611e-12
-9.72515e-13
-9.67825e-13
-9.70228e-13
-9.64358e-13
-9.36769e-13
-9.12307e-13
-9.08836e-13
-9.53412e-13
-9.08862e-13
-8.64056e-13
-9.26186e-13
-9.33831e-13
-9.38197e-13
-9.32574e-13
-9.31105e-13
-9.28768e-13
-9.193e-13
-9.40373e-13
-9.12315e-13
-9.52927e-13
-9.832e-13
-9.68901e-13
-9.81403e-13
-1.04577e-12
-1.0444e-12
-1.0404e-12
-1.0442e-12
-1.03259e-12
-1.02315e-12
-1.02842e-12
-9.92585e-13
-9.46466e-13
-9.1855e-13
-9.11752e-13
-9.02614e-13
-8.52895e-13
-8.17253e-13
-7.74023e-13
-7.53041e-13
-6.69546e-13
-5.69889e-13
-5.30687e-13
-4.99353e-13
-4.20272e-13
-3.54697e-13
-3.33546e-13
-2.9252e-13
-2.17757e-13
-1.33356e-13
-1.00419e-13
-3.88124e-14
-9.20776e-13
-9.87242e-13
-9.8909e-13
-1.01176e-12
-1.01593e-12
-9.93441e-13
-9.94647e-13
-1.01146e-12
-1.0134e-12
-9.73063e-13
-9.77636e-13
-9.69078e-13
-9.58551e-13
-9.61651e-13
-9.1846e-13
-8.88634e-13
-9.41472e-13
-9.09208e-13
-8.71839e-13
-9.00188e-13
-9.16981e-13
-9.36638e-13
-9.46646e-13
-9.2821e-13
-9.23399e-13
-9.33239e-13
-9.25229e-13
-9.13484e-13
-9.64154e-13
-9.84521e-13
-9.59666e-13
-9.87685e-13
-1.03164e-12
-1.03962e-12
-1.03864e-12
-1.03527e-12
-1.03914e-12
-1.02421e-12
-1.00903e-12
-9.89245e-13
-9.59368e-13
-9.27117e-13
-9.13484e-13
-9.06479e-13
-8.48579e-13
-8.27439e-13
-7.79967e-13
-7.5334e-13
-6.76453e-13
-5.66398e-13
-5.30028e-13
-4.94515e-13
-4.0797e-13
-3.51064e-13
-3.26098e-13
-3.11075e-13
-2.3071e-13
-1.4611e-13
-1.06238e-13
-5.12692e-14
-9.42771e-13
-9.82295e-13
-9.95431e-13
-1.01351e-12
-1.01102e-12
-9.88388e-13
-9.74642e-13
-1.01025e-12
-1.0031e-12
-9.71482e-13
-9.80123e-13
-9.74498e-13
-9.99731e-13
-9.37278e-13
-8.99644e-13
-9.12303e-13
-9.38143e-13
-8.79324e-13
-9.00237e-13
-8.50085e-13
-9.06499e-13
-9.33829e-13
-9.3661e-13
-9.16378e-13
-9.33565e-13
-9.45221e-13
-9.31206e-13
-9.10517e-13
-9.39097e-13
-9.88122e-13
-9.61271e-13
-9.75661e-13
-1.01728e-12
-1.05107e-12
-1.03681e-12
-1.03146e-12
-1.04095e-12
-1.02784e-12
-1.00674e-12
-9.97059e-13
-9.66877e-13
-9.35142e-13
-9.17162e-13
-8.97251e-13
-8.33332e-13
-8.31594e-13
-7.9742e-13
-7.49207e-13
-6.81701e-13
-5.76042e-13
-5.33049e-13
-4.89809e-13
-4.01e-13
-3.43148e-13
-3.1887e-13
-3.15239e-13
-2.41665e-13
-1.57483e-13
-1.03736e-13
-5.41508e-14
-9.45446e-13
-9.74181e-13
-9.90025e-13
-1.02665e-12
-1.01311e-12
-9.92518e-13
-9.7213e-13
-1.00072e-12
-9.96105e-13
-9.7634e-13
-9.90384e-13
-9.65227e-13
-9.77221e-13
-9.47089e-13
-8.74846e-13
-9.53595e-13
-9.26143e-13
-9.13174e-13
-9.20747e-13
-8.69481e-13
-9.08684e-13
-9.22309e-13
-9.28072e-13
-9.13461e-13
-9.36174e-13
-9.3732e-13
-9.21116e-13
-9.27367e-13
-9.42604e-13
-9.70097e-13
-9.74896e-13
-9.87434e-13
-1.0044e-12
-1.035e-12
-1.04063e-12
-1.02955e-12
-1.04683e-12
-1.03786e-12
-1.02464e-12
-9.83869e-13
-9.43092e-13
-9.28176e-13
-9.21855e-13
-8.94023e-13
-8.45869e-13
-8.37256e-13
-7.90148e-13
-7.60765e-13
-6.96995e-13
-5.79106e-13
-5.15247e-13
-4.89716e-13
-4.0582e-13
-3.32185e-13
-3.16858e-13
-3.17197e-13
-2.50731e-13
-1.70998e-13
-1.01168e-13
-3.97838e-14
-9.41903e-13
-9.74732e-13
-9.90892e-13
-1.02377e-12
-1.02806e-12
-9.81017e-13
-9.72437e-13
-9.98332e-13
-1.00173e-12
-9.57459e-13
-1.00753e-12
-9.87283e-13
-9.46437e-13
-9.43501e-13
-8.68829e-13
-9.2419e-13
-8.89445e-13
-9.14743e-13
-9.05835e-13
-9.25435e-13
-8.99593e-13
-9.24241e-13
-9.25864e-13
-9.2481e-13
-9.25494e-13
-9.29854e-13
-9.04792e-13
-9.36066e-13
-9.36968e-13
-9.71618e-13
-9.76434e-13
-9.75176e-13
-1.01587e-12
-1.03166e-12
-1.01962e-12
-1.03669e-12
-1.03921e-12
-1.05327e-12
-1.0165e-12
-1.00002e-12
-9.34342e-13
-9.10128e-13
-9.17976e-13
-9.03025e-13
-8.70268e-13
-8.4362e-13
-7.82671e-13
-7.48525e-13
-6.87154e-13
-5.75927e-13
-5.21175e-13
-4.86451e-13
-4.22134e-13
-3.4339e-13
-3.12022e-13
-2.98297e-13
-2.44482e-13
-1.79909e-13
-1.04004e-13
-4.21433e-14
-9.60723e-13
-9.63517e-13
-9.92698e-13
-1.01225e-12
-1.05063e-12
-9.76462e-13
-9.7146e-13
-9.91298e-13
-9.89453e-13
-9.53853e-13
-1.0006e-12
-1.00678e-12
-9.68515e-13
-9.16913e-13
-8.95238e-13
-9.42646e-13
-8.81938e-13
-9.27447e-13
-9.50092e-13
-9.18602e-13
-9.20408e-13
-9.30308e-13
-9.29889e-13
-9.26362e-13
-9.17368e-13
-9.29213e-13
-8.96399e-13
-9.34454e-13
-9.57623e-13
-9.85466e-13
-9.75719e-13
-9.78598e-13
-1.00811e-12
-1.01036e-12
-1.01702e-12
-1.04036e-12
-1.05131e-12
-1.06258e-12
-1.01248e-12
-9.79696e-13
-9.37488e-13
-9.20833e-13
-9.31348e-13
-9.07081e-13
-8.71323e-13
-8.41656e-13
-7.92553e-13
-7.40585e-13
-6.68031e-13
-5.76686e-13
-5.40871e-13
-4.98498e-13
-4.13334e-13
-3.42938e-13
-3.16734e-13
-2.85549e-13
-2.46994e-13
-1.89289e-13
-1.04477e-13
-4.027e-14
-9.61789e-13
-9.66033e-13
-9.99296e-13
-1.00168e-12
-1.05016e-12
-9.76284e-13
-9.83566e-13
-9.83593e-13
-9.89394e-13
-9.55492e-13
-9.99635e-13
-1.01352e-12
-9.37378e-13
-9.27679e-13
-9.0898e-13
-8.87697e-13
-9.29598e-13
-9.67936e-13
-8.84776e-13
-9.49917e-13
-9.21444e-13
-9.49264e-13
-9.34566e-13
-9.00814e-13
-9.26371e-13
-9.26785e-13
-9.08904e-13
-9.3765e-13
-9.61714e-13
-9.81829e-13
-9.84174e-13
-9.93354e-13
-1.00433e-12
-9.98882e-13
-1.01501e-12
-1.03303e-12
-1.05403e-12
-1.04805e-12
-9.9921e-13
-9.77832e-13
-9.60376e-13
-9.44261e-13
-9.26097e-13
-8.99032e-13
-8.65818e-13
-8.39868e-13
-7.80609e-13
-7.43284e-13
-6.74077e-13
-5.91535e-13
-5.33406e-13
-4.95027e-13
-4.11809e-13
-3.55247e-13
-3.25764e-13
-2.75919e-13
-2.58214e-13
-2.07307e-13
-9.30264e-14
-4.70296e-14
-9.56189e-13
-9.63471e-13
-1.0027e-12
-1.00145e-12
-1.03202e-12
-9.85733e-13
-9.83516e-13
-9.78743e-13
-9.84548e-13
-9.7015e-13
-1.00225e-12
-1.00635e-12
-9.37029e-13
-9.3218e-13
-9.29894e-13
-9.33009e-13
-9.33745e-13
-1.01714e-12
-9.36124e-13
-8.97728e-13
-9.3203e-13
-9.36293e-13
-9.27796e-13
-9.03763e-13
-9.23023e-13
-9.21266e-13
-9.28217e-13
-9.28389e-13
-9.61982e-13
-9.77217e-13
-9.8584e-13
-1.00834e-12
-1.01455e-12
-1.00258e-12
-1.02164e-12
-1.02007e-12
-1.04349e-12
-1.0264e-12
-1.00618e-12
-9.76397e-13
-9.77322e-13
-9.55564e-13
-9.22171e-13
-8.88566e-13
-8.7349e-13
-8.56702e-13
-7.84167e-13
-7.18302e-13
-6.67673e-13
-6.02578e-13
-5.34069e-13
-4.97642e-13
-4.0606e-13
-3.50465e-13
-3.42034e-13
-2.91699e-13
-2.64605e-13
-1.87695e-13
-9.277e-14
-3.98115e-14
-9.68007e-13
-9.60657e-13
-9.99901e-13
-9.8705e-13
-1.01402e-12
-1.0024e-12
-9.78504e-13
-9.78737e-13
-9.8273e-13
-9.75174e-13
-9.88755e-13
-9.87368e-13
-9.58624e-13
-9.5847e-13
-9.80462e-13
-9.34539e-13
-9.43446e-13
-1.01863e-12
-9.48685e-13
-9.51368e-13
-9.14765e-13
-9.33494e-13
-9.38519e-13
-8.93666e-13
-9.04283e-13
-9.1655e-13
-9.42375e-13
-9.35244e-13
-9.56208e-13
-9.81381e-13
-9.97385e-13
-1.00903e-12
-9.95312e-13
-1.00525e-12
-1.03845e-12
-1.03087e-12
-1.04431e-12
-1.02402e-12
-1.00681e-12
-9.77725e-13
-9.76615e-13
-9.37355e-13
-9.14676e-13
-8.96086e-13
-8.68174e-13
-8.34635e-13
-7.73728e-13
-7.20682e-13
-6.79471e-13
-6.0197e-13
-5.31385e-13
-4.85362e-13
-4.18819e-13
-3.7714e-13
-3.48089e-13
-2.91361e-13
-2.54522e-13
-1.77559e-13
-9.44785e-14
-3.1491e-14
-9.79247e-13
-9.61828e-13
-9.93206e-13
-9.87045e-13
-1.00666e-12
-9.91724e-13
-9.98005e-13
-9.71867e-13
-9.67291e-13
-9.82845e-13
-9.85762e-13
-1.01298e-12
-9.47941e-13
-9.55796e-13
-9.57995e-13
-9.14728e-13
-9.49938e-13
-1.01293e-12
-9.62965e-13
-9.45722e-13
-9.18384e-13
-9.50863e-13
-9.48685e-13
-9.03557e-13
-9.10805e-13
-9.20803e-13
-9.20895e-13
-9.42873e-13
-9.54729e-13
-9.86091e-13
-9.968e-13
-1.01621e-12
-9.84447e-13
-1.00271e-12
-1.04965e-12
-1.04594e-12
-1.03401e-12
-1.01722e-12
-9.86707e-13
-9.89919e-13
-9.79482e-13
-9.46366e-13
-9.19901e-13
-8.86503e-13
-8.59398e-13
-8.15409e-13
-7.68539e-13
-7.16317e-13
-6.82606e-13
-6.10846e-13
-5.45062e-13
-4.88996e-13
-4.24782e-13
-3.73871e-13
-3.4448e-13
-2.89071e-13
-2.66179e-13
-1.79753e-13
-8.98636e-14
-3.09377e-14
-9.90508e-13
-9.78569e-13
-9.71299e-13
-9.78828e-13
-9.863e-13
-1.00436e-12
-9.95929e-13
-9.63518e-13
-9.54418e-13
-9.84961e-13
-9.84807e-13
-1.01296e-12
-9.39949e-13
-9.73264e-13
-9.42629e-13
-9.18339e-13
-9.46479e-13
-1.00268e-12
-9.5881e-13
-9.45148e-13
-9.22176e-13
-9.67982e-13
-9.41123e-13
-8.96789e-13
-9.21102e-13
-9.27074e-13
-9.29958e-13
-9.40051e-13
-9.63215e-13
-9.85298e-13
-9.9299e-13
-1.01115e-12
-9.98735e-13
-9.86136e-13
-1.05757e-12
-1.05891e-12
-1.03539e-12
-9.96305e-13
-9.85439e-13
-9.97625e-13
-9.79676e-13
-9.6241e-13
-9.21621e-13
-8.73899e-13
-8.55492e-13
-8.1303e-13
-7.50654e-13
-7.17983e-13
-6.74446e-13
-6.07148e-13
-5.4817e-13
-4.96843e-13
-4.44706e-13
-3.82409e-13
-3.30969e-13
-2.82295e-13
-2.60446e-13
-1.84053e-13
-9.70621e-14
-3.14482e-14
-1.00376e-12
-9.8078e-13
-9.41747e-13
-9.79393e-13
-9.81011e-13
-1.00404e-12
-1.00319e-12
-9.53544e-13
-9.62418e-13
-9.74787e-13
-1.00917e-12
-1.00913e-12
-9.45665e-13
-9.69133e-13
-9.34601e-13
-9.19821e-13
-9.34247e-13
-9.80547e-13
-9.81239e-13
-9.53767e-13
-9.23892e-13
-9.60805e-13
-9.40172e-13
-9.04823e-13
-9.39104e-13
-9.19953e-13
-9.34406e-13
-9.34387e-13
-9.64928e-13
-1.00343e-12
-9.95585e-13
-1.02502e-12
-9.92114e-13
-9.81984e-13
-1.06326e-12
-1.05756e-12
-1.01722e-12
-9.82449e-13
-9.83768e-13
-1.00039e-12
-9.85285e-13
-9.75096e-13
-9.21966e-13
-8.65781e-13
-8.41001e-13
-8.03175e-13
-7.38187e-13
-7.24013e-13
-6.95019e-13
-6.11272e-13
-5.508e-13
-5.10322e-13
-4.48558e-13
-3.79481e-13
-3.16886e-13
-2.86366e-13
-2.61568e-13
-1.8509e-13
-9.01682e-14
-2.04841e-14
-9.94292e-13
-9.94204e-13
-9.55063e-13
-9.8287e-13
-9.8192e-13
-1.00166e-12
-1.0051e-12
-9.33287e-13
-9.4182e-13
-9.79836e-13
-1.00842e-12
-9.96506e-13
-9.80718e-13
-9.38322e-13
-9.48153e-13
-9.186e-13
-9.19864e-13
-9.98068e-13
-9.51494e-13
-9.73569e-13
-9.27751e-13
-9.59173e-13
-9.48774e-13
-9.03634e-13
-9.4017e-13
-9.20472e-13
-9.25534e-13
-9.2285e-13
-9.65072e-13
-1.00506e-12
-1.0123e-12
-1.03136e-12
-9.97724e-13
-9.65053e-13
-1.05252e-12
-1.08299e-12
-1.00973e-12
-9.88842e-13
-9.78458e-13
-9.92567e-13
-9.88515e-13
-9.96905e-13
-9.13718e-13
-8.62937e-13
-8.25636e-13
-7.90697e-13
-7.42505e-13
-7.39421e-13
-6.96255e-13
-6.14771e-13
-5.55124e-13
-5.09496e-13
-4.45013e-13
-3.95726e-13
-3.15247e-13
-2.74287e-13
-2.66737e-13
-1.94708e-13
-8.98273e-14
-1.07652e-14
-9.52921e-13
-9.65531e-13
-9.85069e-13
-9.83051e-13
-9.7735e-13
-1.02016e-12
-9.90215e-13
-9.9505e-13
-1.0164e-12
-1.007e-12
-9.74588e-13
-9.73307e-13
-9.59627e-13
-9.39108e-13
-9.26109e-13
-9.31705e-13
-9.15084e-13
-8.86626e-13
-8.90268e-13
-9.08117e-13
-9.48157e-13
-9.17443e-13
-9.26708e-13
-9.03649e-13
-9.16462e-13
-9.37046e-13
-9.48274e-13
-9.22497e-13
-9.56667e-13
-9.58153e-13
-9.93333e-13
-9.97618e-13
-1.00096e-12
-1.06173e-12
-1.04348e-12
-1.0673e-12
-1.08666e-12
-1.03889e-12
-1.0138e-12
-9.81189e-13
-9.21116e-13
-9.2279e-13
-9.18172e-13
-8.75593e-13
-8.61018e-13
-8.39624e-13
-7.9164e-13
-7.24565e-13
-6.79303e-13
-6.14082e-13
-5.45179e-13
-4.84424e-13
-4.2471e-13
-3.62672e-13
-3.10531e-13
-2.59825e-13
-2.17236e-13
-1.5025e-13
-9.20389e-14
-3.40571e-14
-9.59754e-13
-9.61008e-13
-9.75788e-13
-9.92921e-13
-9.85306e-13
-1.02233e-12
-1.00265e-12
-9.80725e-13
-1.01889e-12
-9.91994e-13
-9.79093e-13
-9.68854e-13
-9.67091e-13
-9.29278e-13
-9.24241e-13
-9.28037e-13
-9.17889e-13
-8.89193e-13
-8.79423e-13
-9.17043e-13
-9.53921e-13
-9.15465e-13
-9.28642e-13
-9.02727e-13
-9.10316e-13
-9.4935e-13
-9.37595e-13
-9.33092e-13
-9.43077e-13
-9.57345e-13
-9.87362e-13
-9.95965e-13
-1.0094e-12
-1.05991e-12
-1.04939e-12
-1.06998e-12
-1.0813e-12
-1.03584e-12
-1.01478e-12
-9.81737e-13
-9.29141e-13
-9.17387e-13
-9.21887e-13
-8.81495e-13
-8.584e-13
-8.3896e-13
-7.96364e-13
-7.31003e-13
-6.68374e-13
-6.07867e-13
-5.47194e-13
-4.85531e-13
-4.18813e-13
-3.65203e-13
-3.19816e-13
-2.59761e-13
-2.08916e-13
-1.45563e-13
-9.74498e-14
-3.12023e-14
-9.61462e-13
-9.68519e-13
-9.70744e-13
-1.00072e-12
-9.89007e-13
-1.02764e-12
-1.01018e-12
-9.79272e-13
-1.01011e-12
-9.93543e-13
-9.61448e-13
-9.79876e-13
-9.78236e-13
-9.2587e-13
-9.24768e-13
-9.21246e-13
-9.2307e-13
-8.91102e-13
-8.7699e-13
-9.18704e-13
-9.54191e-13
-9.26118e-13
-9.33164e-13
-9.1591e-13
-9.06678e-13
-9.44683e-13
-9.37055e-13
-9.36937e-13
-9.36101e-13
-9.44283e-13
-9.88219e-13
-9.97218e-13
-1.02514e-12
-1.04158e-12
-1.06823e-12
-1.07324e-12
-1.0716e-12
-1.01797e-12
-1.01896e-12
-9.87047e-13
-9.34371e-13
-9.12129e-13
-9.19312e-13
-8.82862e-13
-8.59038e-13
-8.35465e-13
-7.96527e-13
-7.4605e-13
-6.59232e-13
-5.88872e-13
-5.44971e-13
-4.8469e-13
-4.21629e-13
-3.71908e-13
-3.119e-13
-2.65797e-13
-2.05409e-13
-1.39964e-13
-1.01134e-13
-3.16003e-14
-9.57338e-13
-9.67893e-13
-9.81868e-13
-9.90755e-13
-9.97634e-13
-1.0289e-12
-1.00845e-12
-9.88594e-13
-1.00989e-12
-9.75946e-13
-9.71423e-13
-9.88522e-13
-9.76193e-13
-9.21643e-13
-9.17682e-13
-9.13386e-13
-9.43795e-13
-9.13097e-13
-8.6299e-13
-9.24051e-13
-9.48843e-13
-9.27875e-13
-9.40684e-13
-9.20298e-13
-9.04863e-13
-9.2662e-13
-9.4568e-13
-9.33399e-13
-9.31806e-13
-9.63729e-13
-9.77662e-13
-9.84252e-13
-1.03978e-12
-1.05128e-12
-1.07294e-12
-1.06407e-12
-1.05696e-12
-1.01366e-12
-1.01958e-12
-9.88972e-13
-9.39654e-13
-9.13991e-13
-9.14198e-13
-8.95168e-13
-8.65155e-13
-8.27089e-13
-7.84775e-13
-7.39973e-13
-6.68966e-13
-5.87979e-13
-5.37436e-13
-4.78734e-13
-4.24666e-13
-3.77498e-13
-3.14737e-13
-2.68712e-13
-2.0753e-13
-1.33158e-13
-9.56594e-14
-3.02535e-14
-9.446e-13
-9.67705e-13
-9.86467e-13
-9.88471e-13
-1.02143e-12
-1.01266e-12
-1.00706e-12
-9.95996e-13
-1.01797e-12
-9.65887e-13
-9.64691e-13
-9.91591e-13
-9.68655e-13
-9.29471e-13
-9.11713e-13
-9.01967e-13
-9.55298e-13
-9.20143e-13
-8.8373e-13
-8.98464e-13
-9.44886e-13
-9.31533e-13
-9.3991e-13
-9.19182e-13
-9.10808e-13
-9.22704e-13
-9.38637e-13
-9.34169e-13
-9.49474e-13
-9.67105e-13
-9.6893e-13
-9.85681e-13
-1.03758e-12
-1.04577e-12
-1.05658e-12
-1.05633e-12
-1.05132e-12
-1.01784e-12
-1.02273e-12
-9.91333e-13
-9.43593e-13
-9.13507e-13
-9.06558e-13
-9.02496e-13
-8.65856e-13
-8.27358e-13
-7.81518e-13
-7.40006e-13
-6.63705e-13
-5.80384e-13
-5.41959e-13
-4.86184e-13
-4.22889e-13
-3.63122e-13
-3.11503e-13
-2.82391e-13
-2.24213e-13
-1.25928e-13
-8.92525e-14
-3.86834e-14
-9.38774e-13
-9.74102e-13
-9.96119e-13
-9.89885e-13
-1.01923e-12
-1.00686e-12
-1.00131e-12
-9.93364e-13
-1.02094e-12
-9.72721e-13
-9.70872e-13
-9.75602e-13
-9.80373e-13
-9.41644e-13
-9.04788e-13
-9.185e-13
-9.54289e-13
-9.47447e-13
-8.70203e-13
-9.13624e-13
-9.36883e-13
-9.36993e-13
-9.29829e-13
-9.30784e-13
-9.22484e-13
-9.20482e-13
-9.42821e-13
-9.22841e-13
-9.57486e-13
-9.69313e-13
-9.66009e-13
-9.84696e-13
-1.0363e-12
-1.04691e-12
-1.05329e-12
-1.04022e-12
-1.03501e-12
-1.03712e-12
-1.01481e-12
-9.91623e-13
-9.49e-13
-9.14877e-13
-9.00711e-13
-9.12005e-13
-8.59124e-13
-8.23491e-13
-7.77277e-13
-7.37082e-13
-6.65907e-13
-5.7943e-13
-5.34831e-13
-4.93833e-13
-4.24856e-13
-3.51065e-13
-3.2056e-13
-2.9591e-13
-2.22534e-13
-1.36984e-13
-9.72054e-14
-3.68758e-14
-9.24179e-13
-9.87762e-13
-9.94908e-13
-1.00841e-12
-1.00982e-12
-9.97973e-13
-9.91232e-13
-9.97819e-13
-1.02607e-12
-9.70419e-13
-9.70677e-13
-9.72061e-13
-9.64764e-13
-9.62513e-13
-9.27562e-13
-9.08432e-13
-9.07888e-13
-9.23598e-13
-8.98586e-13
-9.20946e-13
-9.27792e-13
-9.42513e-13
-9.29781e-13
-9.28972e-13
-9.18964e-13
-9.35906e-13
-9.38261e-13
-9.21374e-13
-9.52232e-13
-9.71972e-13
-9.7237e-13
-9.81639e-13
-1.0184e-12
-1.05124e-12
-1.04558e-12
-1.03386e-12
-1.04984e-12
-1.03303e-12
-1.00269e-12
-9.83509e-13
-9.59277e-13
-9.18401e-13
-9.03509e-13
-9.15951e-13
-8.58165e-13
-8.24677e-13
-7.80028e-13
-7.37942e-13
-6.78882e-13
-5.86707e-13
-5.28193e-13
-4.91763e-13
-4.15034e-13
-3.48474e-13
-3.19852e-13
-3.08913e-13
-2.34195e-13
-1.4566e-13
-9.73302e-14
-4.31778e-14
-9.36873e-13
-9.88154e-13
-9.92339e-13
-1.00829e-12
-1.01204e-12
-9.82694e-13
-9.87875e-13
-1.00288e-12
-1.01288e-12
-9.72408e-13
-9.78327e-13
-9.69737e-13
-9.71588e-13
-9.61095e-13
-8.83692e-13
-9.30198e-13
-9.20645e-13
-9.14875e-13
-9.09566e-13
-8.75433e-13
-9.26814e-13
-9.35434e-13
-9.24815e-13
-9.26305e-13
-9.22192e-13
-9.36633e-13
-9.38545e-13
-9.14989e-13
-9.45454e-13
-9.75807e-13
-9.72061e-13
-9.73258e-13
-1.01603e-12
-1.05039e-12
-1.03121e-12
-1.03819e-12
-1.05161e-12
-1.03556e-12
-1.011e-12
-9.80924e-13
-9.60326e-13
-9.23013e-13
-9.1349e-13
-9.11077e-13
-8.47251e-13
-8.3293e-13
-7.97467e-13
-7.43992e-13
-6.84596e-13
-5.88794e-13
-5.28516e-13
-4.82979e-13
-4.04879e-13
-3.45106e-13
-3.20606e-13
-3.07529e-13
-2.42095e-13
-1.64153e-13
-1.04283e-13
-5.12091e-14
-9.49694e-13
-9.64974e-13
-9.89543e-13
-1.02444e-12
-1.02556e-12
-9.78366e-13
-9.82049e-13
-9.94367e-13
-9.97234e-13
-9.85836e-13
-9.87815e-13
-9.64317e-13
-9.72461e-13
-9.54992e-13
-9.00485e-13
-9.37989e-13
-9.33026e-13
-9.3188e-13
-9.28043e-13
-8.64574e-13
-9.28685e-13
-9.28401e-13
-9.22349e-13
-9.20263e-13
-9.21913e-13
-9.43678e-13
-9.20444e-13
-9.23884e-13
-9.4302e-13
-9.64974e-13
-9.79607e-13
-9.79149e-13
-1.00758e-12
-1.03665e-12
-1.04147e-12
-1.03053e-12
-1.05152e-12
-1.04545e-12
-1.00327e-12
-9.88555e-13
-9.49299e-13
-9.20499e-13
-9.14482e-13
-9.07329e-13
-8.49528e-13
-8.32901e-13
-7.91386e-13
-7.48753e-13
-6.9247e-13
-5.84668e-13
-5.24303e-13
-4.84755e-13
-4.1393e-13
-3.40851e-13
-3.15851e-13
-3.0709e-13
-2.43504e-13
-1.80445e-13
-1.02816e-13
-4.74913e-14
-9.49907e-13
-9.72861e-13
-9.87675e-13
-1.01385e-12
-1.03292e-12
-9.94931e-13
-9.65903e-13
-9.85496e-13
-1.00645e-12
-9.8184e-13
-9.92908e-13
-9.8117e-13
-9.69527e-13
-9.40562e-13
-8.9758e-13
-9.18366e-13
-9.00447e-13
-9.37573e-13
-9.21013e-13
-9.06111e-13
-8.81554e-13
-9.22588e-13
-9.32379e-13
-9.28968e-13
-9.19774e-13
-9.34235e-13
-9.01496e-13
-9.37868e-13
-9.41043e-13
-9.6363e-13
-9.8218e-13
-9.82756e-13
-9.92536e-13
-1.03741e-12
-1.03294e-12
-1.03632e-12
-1.04604e-12
-1.04562e-12
-1.00321e-12
-1.0003e-12
-9.38989e-13
-9.14418e-13
-9.12651e-13
-9.23125e-13
-8.62408e-13
-8.43271e-13
-7.84986e-13
-7.40825e-13
-6.83902e-13
-5.84272e-13
-5.29398e-13
-4.84905e-13
-4.22028e-13
-3.45513e-13
-3.10655e-13
-3.01923e-13
-2.42708e-13
-1.85487e-13
-9.90388e-14
-4.42349e-14
-9.59729e-13
-9.6806e-13
-9.79219e-13
-1.01192e-12
-1.04269e-12
-9.89586e-13
-9.69016e-13
-9.79976e-13
-9.96983e-13
-9.81595e-13
-9.85849e-13
-9.98084e-13
-9.61254e-13
-9.0368e-13
-9.47486e-13
-9.36602e-13
-8.86322e-13
-9.54103e-13
-9.22442e-13
-9.04391e-13
-9.15331e-13
-9.27687e-13
-9.41916e-13
-9.27259e-13
-9.18749e-13
-9.25446e-13
-8.96504e-13
-9.33528e-13
-9.62673e-13
-9.75745e-13
-9.76348e-13
-9.79662e-13
-1.00327e-12
-1.01988e-12
-1.01842e-12
-1.03795e-12
-1.06494e-12
-1.03862e-12
-1.01126e-12
-9.84326e-13
-9.3123e-13
-9.31746e-13
-9.25121e-13
-9.14135e-13
-8.72537e-13
-8.4737e-13
-7.8821e-13
-7.32873e-13
-6.65938e-13
-5.92672e-13
-5.48416e-13
-4.87643e-13
-4.07701e-13
-3.40347e-13
-3.16699e-13
-2.93609e-13
-2.50366e-13
-1.92074e-13
-9.27135e-14
-3.97096e-14
-9.70021e-13
-9.6121e-13
-9.89374e-13
-1.00276e-12
-1.04063e-12
-9.8372e-13
-9.81302e-13
-9.71834e-13
-9.96812e-13
-9.66964e-13
-9.91577e-13
-1.00061e-12
-9.57358e-13
-9.16484e-13
-9.43399e-13
-9.27913e-13
-9.17085e-13
-9.527e-13
-8.96957e-13
-9.04497e-13
-8.88375e-13
-9.37386e-13
-9.37489e-13
-9.14087e-13
-9.22993e-13
-9.22029e-13
-9.09856e-13
-9.29755e-13
-9.67398e-13
-9.7514e-13
-9.83199e-13
-9.95551e-13
-1.00108e-12
-1.00538e-12
-1.02049e-12
-1.03305e-12
-1.06038e-12
-1.04512e-12
-9.98652e-13
-9.8171e-13
-9.48623e-13
-9.42354e-13
-9.3215e-13
-8.96781e-13
-8.74083e-13
-8.52194e-13
-7.79873e-13
-7.26975e-13
-6.71295e-13
-6.02416e-13
-5.41658e-13
-4.90973e-13
-4.05859e-13
-3.5417e-13
-3.19892e-13
-2.87489e-13
-2.52336e-13
-1.98829e-13
-1.00464e-13
-5.13003e-14
-9.67219e-13
-9.63031e-13
-9.9517e-13
-9.94676e-13
-1.03068e-12
-9.82718e-13
-9.89452e-13
-9.82446e-13
-9.82186e-13
-9.74627e-13
-9.91071e-13
-9.96079e-13
-9.42918e-13
-9.07627e-13
-9.02771e-13
-9.24888e-13
-9.18348e-13
-1.01271e-12
-9.50037e-13
-9.46791e-13
-9.32522e-13
-9.32157e-13
-9.39181e-13
-8.97331e-13
-9.28932e-13
-9.23328e-13
-9.16879e-13
-9.28023e-13
-9.55766e-13
-9.79596e-13
-9.91727e-13
-9.91028e-13
-1.01026e-12
-1.00033e-12
-1.03062e-12
-1.03412e-12
-1.04965e-12
-1.0328e-12
-1.00175e-12
-9.7778e-13
-9.63302e-13
-9.47489e-13
-9.23177e-13
-8.964e-13
-8.80292e-13
-8.46351e-13
-7.69757e-13
-7.18214e-13
-6.76356e-13
-6.04443e-13
-5.3193e-13
-4.92438e-13
-4.09439e-13
-3.60006e-13
-3.34746e-13
-2.8972e-13
-2.54133e-13
-1.88635e-13
-1.04211e-13
-4.26387e-14
-9.79072e-13
-9.56173e-13
-9.94242e-13
-9.93909e-13
-1.01191e-12
-9.8909e-13
-9.75485e-13
-9.87354e-13
-9.72928e-13
-9.78231e-13
-9.96738e-13
-9.7845e-13
-9.6565e-13
-9.42103e-13
-9.85485e-13
-9.33258e-13
-9.40527e-13
-9.94711e-13
-9.49383e-13
-9.52992e-13
-9.39561e-13
-9.42994e-13
-9.34981e-13
-8.98698e-13
-9.16781e-13
-9.22082e-13
-9.33313e-13
-9.31676e-13
-9.51793e-13
-9.75909e-13
-1.00211e-12
-9.94419e-13
-1.00306e-12
-1.01372e-12
-1.0375e-12
-1.02946e-12
-1.04787e-12
-1.02526e-12
-1.00705e-12
-9.78769e-13
-9.67584e-13
-9.42963e-13
-9.17564e-13
-8.95004e-13
-8.76225e-13
-8.28448e-13
-7.66187e-13
-7.15641e-13
-6.78417e-13
-6.04904e-13
-5.34527e-13
-4.88225e-13
-4.19474e-13
-3.71532e-13
-3.46326e-13
-2.98516e-13
-2.45647e-13
-1.82529e-13
-9.91568e-14
-4.28237e-14
-9.78536e-13
-9.57553e-13
-9.86021e-13
-9.95533e-13
-9.9873e-13
-9.93821e-13
-9.90552e-13
-9.72368e-13
-9.73655e-13
-9.78612e-13
-9.99503e-13
-9.84548e-13
-9.55798e-13
-9.60509e-13
-9.67805e-13
-9.17854e-13
-9.47862e-13
-9.77104e-13
-9.60631e-13
-9.55119e-13
-9.19142e-13
-9.53337e-13
-9.48828e-13
-9.0612e-13
-9.13917e-13
-9.16992e-13
-9.30005e-13
-9.28625e-13
-9.68602e-13
-9.77461e-13
-9.94475e-13
-9.99137e-13
-9.99649e-13
-1.00874e-12
-1.04538e-12
-1.0402e-12
-1.03562e-12
-1.01643e-12
-9.96444e-13
-9.90824e-13
-9.80796e-13
-9.47221e-13
-9.18635e-13
-8.84291e-13
-8.69687e-13
-8.13967e-13
-7.56114e-13
-7.13911e-13
-6.79886e-13
-6.10203e-13
-5.40763e-13
-4.96936e-13
-4.28815e-13
-3.76116e-13
-3.30981e-13
-2.97246e-13
-2.71003e-13
-1.86157e-13
-9.22716e-14
-2.96469e-14
-1.00176e-12
-9.72389e-13
-9.55499e-13
-9.89524e-13
-9.87725e-13
-9.9377e-13
-9.99186e-13
-9.56446e-13
-9.70043e-13
-9.72219e-13
-9.91313e-13
-1.00166e-12
-9.51675e-13
-9.76432e-13
-9.53484e-13
-9.20072e-13
-9.38583e-13
-9.74136e-13
-9.62247e-13
-9.5852e-13
-9.26146e-13
-9.57932e-13
-9.48509e-13
-9.04768e-13
-9.23534e-13
-9.17935e-13
-9.29588e-13
-9.26655e-13
-9.62426e-13
-9.83276e-13
-1.00072e-12
-1.01526e-12
-9.9346e-13
-1.00544e-12
-1.04367e-12
-1.05055e-12
-1.0392e-12
-1.00248e-12
-9.91328e-13
-9.9393e-13
-9.76047e-13
-9.58844e-13
-9.23931e-13
-8.72761e-13
-8.54879e-13
-8.08491e-13
-7.44405e-13
-7.18808e-13
-6.81352e-13
-6.12106e-13
-5.48447e-13
-4.97698e-13
-4.39403e-13
-3.82879e-13
-3.31205e-13
-2.86894e-13
-2.59008e-13
-1.84281e-13
-9.86073e-14
-3.55678e-14
-1.0043e-12
-9.80486e-13
-9.49343e-13
-9.79013e-13
-9.82537e-13
-1.00493e-12
-1.00548e-12
-9.48977e-13
-9.64864e-13
-9.69749e-13
-1.01355e-12
-1.0011e-12
-9.66485e-13
-9.54711e-13
-9.45111e-13
-9.17241e-13
-9.2741e-13
-9.83957e-13
-9.65766e-13
-9.63584e-13
-9.28483e-13
-9.50697e-13
-9.42444e-13
-9.08292e-13
-9.39288e-13
-9.22078e-13
-9.2614e-13
-9.2024e-13
-9.66676e-13
-1.00238e-12
-1.0024e-12
-1.03031e-12
-9.83166e-13
-1.00161e-12
-1.04982e-12
-1.05377e-12
-1.02116e-12
-9.93421e-13
-9.89577e-13
-1.00374e-12
-9.83562e-13
-9.69393e-13
-9.21986e-13
-8.68006e-13
-8.34729e-13
-8.01499e-13
-7.37014e-13
-7.23196e-13
-6.86836e-13
-6.19346e-13
-5.56062e-13
-5.10685e-13
-4.43935e-13
-3.84091e-13
-3.22062e-13
-2.79538e-13
-2.54937e-13
-1.91795e-13
-9.43361e-14
-3.0326e-14
-1.00162e-12
-9.91396e-13
-9.55198e-13
-9.82717e-13
-9.77225e-13
-9.91159e-13
-1.00412e-12
-9.4675e-13
-9.4378e-13
-9.76957e-13
-1.01538e-12
-9.96858e-13
-9.76141e-13
-9.51633e-13
-9.37259e-13
-9.20833e-13
-9.24423e-13
-9.9297e-13
-9.46154e-13
-9.75646e-13
-9.4004e-13
-9.42158e-13
-9.392e-13
-9.18202e-13
-9.51048e-13
-9.244e-13
-9.16891e-13
-9.1007e-13
-9.55527e-13
-1.02383e-12
-1.01184e-12
-1.02971e-12
-9.87738e-13
-9.94648e-13
-1.05961e-12
-1.04764e-12
-1.00766e-12
-1.0032e-12
-9.86342e-13
-9.89614e-13
-9.92785e-13
-9.82446e-13
-9.16411e-13
-8.65985e-13
-8.22833e-13
-7.87735e-13
-7.41627e-13
-7.3874e-13
-6.88379e-13
-6.18603e-13
-5.65641e-13
-5.08236e-13
-4.40949e-13
-4.03705e-13
-3.19725e-13
-2.73597e-13
-2.55057e-13
-1.92992e-13
-9.02466e-14
-2.09629e-14
-9.58189e-13
-9.62995e-13
-9.73815e-13
-9.80177e-13
-9.82434e-13
-1.02254e-12
-9.94135e-13
-9.93114e-13
-1.01681e-12
-9.97782e-13
-9.6367e-13
-9.79166e-13
-9.64302e-13
-9.34994e-13
-9.15816e-13
-9.47284e-13
-9.19198e-13
-8.80353e-13
-8.8683e-13
-9.08114e-13
-9.45856e-13
-9.13198e-13
-9.19056e-13
-9.0535e-13
-9.298e-13
-9.37861e-13
-9.40681e-13
-9.37708e-13
-9.37872e-13
-9.54605e-13
-1.00029e-12
-9.90894e-13
-1.01257e-12
-1.04906e-12
-1.0446e-12
-1.07103e-12
-1.07515e-12
-1.0415e-12
-1.01728e-12
-9.82604e-13
-9.25742e-13
-9.26766e-13
-9.09336e-13
-8.76546e-13
-8.67405e-13
-8.46728e-13
-7.86432e-13
-7.23836e-13
-6.69053e-13
-6.06334e-13
-5.49322e-13
-4.84684e-13
-4.2685e-13
-3.6751e-13
-3.12084e-13
-2.44244e-13
-2.21815e-13
-1.54324e-13
-8.84376e-14
-2.87238e-14
-9.64925e-13
-9.53969e-13
-9.7539e-13
-9.91638e-13
-9.86817e-13
-1.02255e-12
-1.00377e-12
-9.81287e-13
-1.01506e-12
-9.85568e-13
-9.69004e-13
-9.80116e-13
-9.66285e-13
-9.35196e-13
-9.17763e-13
-9.37425e-13
-9.16645e-13
-8.832e-13
-8.84714e-13
-9.16278e-13
-9.50429e-13
-9.13891e-13
-9.16168e-13
-9.04423e-13
-9.24135e-13
-9.43119e-13
-9.37437e-13
-9.41716e-13
-9.34578e-13
-9.56779e-13
-9.95678e-13
-9.86746e-13
-1.01544e-12
-1.05262e-12
-1.05277e-12
-1.06285e-12
-1.07258e-12
-1.04247e-12
-1.02135e-12
-9.75981e-13
-9.24423e-13
-9.19554e-13
-9.23077e-13
-8.79591e-13
-8.61593e-13
-8.46324e-13
-7.89021e-13
-7.2805e-13
-6.62895e-13
-5.99873e-13
-5.52728e-13
-4.85789e-13
-4.2219e-13
-3.73204e-13
-3.15865e-13