/*--------------------------------*- C++ -*----------------------------------*\
  =========                 |
  \\      /  F ield         | OpenFOAM: The Open Source CFD Toolbox
   \\    /   O peration     | Website:  https://openfoam.org
    \\  /    A nd           | Version:  13
     \\/     M anipulation  |
\*---------------------------------------------------------------------------*/
FoamFile
{
    format      ascii;
    class       volVectorField;
    location    "7";
    object      U;
}
// * * * * * * * * * * * * * * * * * * * * * * * * * * * * * * * * * * * * * //

dimensions      [0 1 -1 0 0 0 0];

internalField   nonuniform List<vector> 
54636
(
(20 -2.23297e-16 -1.71796e-16)
(20 -2.80982e-16 -1.51571e-16)
(20 -6.52585e-16 8.47195e-17)
(20 1.70787e-18 -1.83141e-16)
(20 1.18591e-16 -1.24569e-16)
(20 -8.08042e-17 -3.09282e-16)
(20 6.22919e-16 -4.26282e-16)
(20 2.62352e-16 6.95065e-16)
(20 6.09228e-16 4.96291e-16)
(20 -5.12671e-16 1.55928e-16)
(20 -2.21953e-16 -7.25259e-18)
(20 -7.08156e-16 -6.34767e-16)
(20 3.54639e-16 2.35036e-16)
(20 2.94176e-16 -9.0341e-17)
(20 -2.89865e-16 -9.81244e-16)
(20 -4.85739e-16 -1.03835e-16)
(20 -4.85925e-16 -5.85245e-17)
(20 -3.79618e-16 -3.2524e-18)
(20 -6.69529e-16 6.95035e-16)
(20 -4.44445e-16 5.44209e-17)
(20 -2.33834e-16 6.68648e-16)
(20 1.68449e-16 -1.80701e-16)
(20 -8.24537e-17 1.35301e-16)
(20 4.09927e-16 1.48627e-16)
(20 5.63729e-16 9.59643e-16)
(20 6.07925e-16 9.57187e-16)
(20 2.55273e-16 3.95239e-17)
(20 7.26224e-16 -2.19345e-16)
(20 -2.66803e-16 -7.42343e-16)
(20 -3.12232e-17 -3.2789e-16)
(20 -3.18499e-16 -8.25239e-17)
(20 -7.52858e-16 -1.73987e-16)
(20 -7.04412e-16 -3.75514e-16)
(20 -7.50088e-16 -1.34355e-16)
(20 3.61782e-19 5.7534e-16)
(20 -1.49485e-16 -7.15667e-16)
(20 4.70052e-17 -1.52377e-15)
(20 -2.37088e-16 -5.59556e-16)
(20 -1.4694e-16 2.16858e-17)
(20 -5.71011e-16 2.26678e-19)
(20 1.58051e-16 8.87074e-17)
(20 2.36192e-16 4.2105e-16)
(20 6.13678e-16 8.82465e-16)
(20 8.87744e-16 9.36702e-16)
(20 2.35724e-16 7.67523e-16)
(20 6.58652e-17 1.97809e-16)
(20 -1.08826e-17 -5.45848e-16)
(20 4.30808e-16 2.96134e-17)
(20 -1.27958e-17 4.78664e-16)
(20 3.64993e-16 2.6962e-16)
(20 3.08369e-16 -1.7047e-16)
(20 2.28324e-16 -3.314e-16)
(20 -5.79468e-16 -5.14584e-17)
(20 -4.21904e-16 4.79411e-16)
(20 1.94772e-16 1.91646e-16)
(20 5.18907e-16 -1.98685e-16)
(20 3.64285e-16 2.38419e-16)
(20 -3.01712e-16 2.50282e-16)
(20 -5.29338e-16 -2.67562e-16)
(20 -2.57366e-16 5.63419e-17)
(20 -4.22201e-16 3.96761e-16)
(20 -5.9563e-16 2.63729e-16)
(20 -5.40696e-16 1.33609e-16)
(20 2.97974e-16 -2.4785e-16)
(20 3.08878e-16 -7.20833e-17)
(20 1.96627e-17 -2.73643e-16)
(20 7.41353e-16 -5.82557e-16)
(20 4.92562e-16 2.09906e-17)
(20 2.75385e-16 -2.13232e-16)
(20 -4.3785e-16 8.19583e-17)
(20 -1.02249e-15 1.64432e-16)
(20 -9.14682e-16 -2.23935e-16)
(20 8.89376e-16 2.55499e-16)
(20 3.66996e-16 -3.30847e-16)
(20 -2.15638e-16 -5.08542e-16)
(20 -8.59083e-16 1.55189e-16)
(20 -5.99661e-16 1.80832e-16)
(20 -1.03429e-15 -7.50334e-17)
(20 -1.43604e-15 2.96979e-16)
(20 -9.8341e-16 2.99128e-16)
(20 8.13118e-16 9.10806e-16)
(20 1.13395e-15 -5.2405e-16)
(20 7.14141e-16 8.14621e-17)
(20 6.0793e-16 -2.62331e-16)
(20 1.29394e-15 2.81916e-16)
(20 7.64952e-16 6.58552e-16)
(20 1.69339e-16 -7.45497e-17)
(20 9.89447e-16 6.3857e-17)
(20 -1.12326e-15 -3.25867e-16)
(20 -8.02959e-16 -4.27697e-16)
(20 -8.49455e-16 -1.85173e-16)
(20 -1.45913e-15 -3.81845e-17)
(20 -3.8547e-16 1.50469e-16)
(20 -5.54185e-16 2.7923e-16)
(20 1.39659e-15 4.95733e-16)
(20 1.11331e-15 -3.67967e-16)
(20 -7.6173e-17 -1.30024e-15)
(20 -7.81983e-16 -6.41051e-17)
(20 -5.71165e-16 -2.40743e-17)
(20 -8.47563e-16 5.13377e-17)
(20 2.20437e-16 4.12461e-17)
(20 -4.22557e-16 -1.76177e-16)
(20 -2.34439e-16 5.94792e-17)
(20 9.25577e-16 4.05328e-16)
(20 2.11696e-16 4.62955e-16)
(20 -3.60254e-16 1.08333e-16)
(20 -6.23235e-16 -1.74422e-16)
(20 8.73984e-16 -4.57982e-20)
(20 5.26664e-16 2.2519e-16)
(20 3.79751e-16 -2.4625e-16)
(20 3.77635e-16 -2.22886e-19)
(20 3.69842e-16 -3.26507e-17)
(20 -6.17811e-16 2.01822e-16)
(20 -8.61783e-17 4.23587e-16)
(20 5.07546e-16 2.06475e-16)
(20 6.01359e-16 -3.26602e-16)
(20 3.16536e-16 1.43187e-16)
(20 -2.45665e-16 3.26128e-16)
(20 -6.35537e-16 8.03749e-17)
(20 -3.00173e-16 1.75891e-16)
(20 -2.67239e-17 5.00899e-16)
(20 -3.1122e-16 5.52047e-16)
(20 6.19189e-17 -1.9025e-16)
(20 4.20617e-17 -1.54689e-16)
(20 1.03047e-15 -4.73477e-18)
(20 6.89446e-16 -8.35593e-17)
(20 -4.28986e-18 -9.73672e-17)
(20 9.53894e-16 5.98497e-17)
(20 4.01271e-16 -1.94884e-16)
(20 -8.26875e-16 -1.38147e-16)
(20 -1.69683e-15 6.37101e-17)
(20 -1.02298e-15 5.08321e-18)
(20 9.24464e-16 3.26566e-16)
(20 1.38126e-16 -2.2198e-17)
(20 -4.52589e-17 -6.52289e-17)
(20 -8.52658e-16 4.2083e-16)
(20 -2.98859e-16 3.62793e-18)
(20 9.33672e-17 1.2481e-16)
(20 -4.62728e-16 4.8369e-16)
(20 -4.32873e-16 4.16935e-16)
(20 1.11531e-15 -6.41295e-18)
(20 8.36266e-16 -8.6754e-16)
(20 5.53139e-16 -6.287e-17)
(20 5.27096e-16 3.62954e-16)
(20 1.18685e-15 -5.61998e-17)
(20 7.01936e-16 5.21777e-16)
(20 7.00606e-17 3.73597e-17)
(20 4.1327e-16 1.12578e-16)
(20 -1.50611e-15 4.29173e-16)
(20 -3.69025e-16 -6.16868e-16)
(20 -1.24731e-15 -2.36622e-16)
(20 -1.18824e-15 9.29384e-17)
(20 1.1078e-15 3.23987e-16)
(20 5.61165e-16 -2.02096e-16)
(20 1.5384e-15 1.34149e-17)
(20 1.3402e-15 -3.75356e-16)
(20 -3.31744e-16 -5.16959e-16)
(20 -5.97993e-16 7.75958e-17)
(20 -4.9584e-16 2.16561e-16)
(20 -2.33575e-16 4.42969e-16)
(20 -2.25619e-16 2.94881e-17)
(20 -8.44486e-16 -1.69311e-16)
(20 -1.24328e-15 -1.05576e-17)
(20 4.49597e-16 -3.05092e-16)
(20 6.81657e-16 2.84513e-16)
(20 -1.99827e-16 3.6175e-16)
(20 -6.71084e-16 1.03097e-16)
(20 6.80677e-16 2.3746e-17)
(20 1.07096e-15 1.37696e-16)
(20 4.36886e-16 -1.93893e-16)
(20 1.05693e-15 -6.94527e-17)
(20 5.20782e-16 -3.38306e-16)
(20 -4.51829e-16 -6.01402e-17)
(20 -1.72882e-16 3.10665e-16)
(20 1.58292e-17 -1.05777e-16)
(20 1.28204e-16 -1.45864e-16)
(20 1.68723e-16 5.87851e-17)
(20 9.28113e-17 5.93863e-19)
(20 -3.93311e-16 -8.19323e-17)
(20 -5.76817e-16 5.42681e-17)
(20 -1.27412e-15 1.54348e-16)
(20 -8.67639e-16 -3.98441e-17)
(20 -8.20623e-16 -3.43291e-17)
(20 -5.09006e-17 -6.27887e-17)
(20 2.1403e-15 -3.01606e-16)
(20 1.46817e-15 -7.38911e-17)
(20 -2.90929e-16 5.01524e-17)
(20 3.75628e-16 -2.00149e-16)
(20 6.55966e-16 -2.78821e-16)
(20 -5.88522e-16 3.00477e-17)
(20 -1.10137e-15 4.6945e-16)
(20 -8.46613e-16 6.47709e-16)
(20 4.6107e-16 2.92763e-16)
(20 8.83759e-16 9.88086e-17)
(20 -9.0172e-16 -2.78462e-16)
(20 -5.92729e-16 1.23716e-16)
(20 -5.73818e-16 -2.46921e-17)
(20 5.96537e-16 9.646e-17)
(20 1.43727e-16 -6.81699e-17)
(20 1.98002e-16 5.28263e-16)
(20 -2.34186e-16 -4.85868e-16)
(20 -7.11289e-16 -8.65603e-16)
(20 -8.10389e-16 4.38021e-16)
(20 1.96926e-16 3.90824e-16)
(20 3.17853e-16 -4.16562e-16)
(20 4.71565e-16 -4.78546e-16)
(20 1.05072e-16 3.43033e-16)
(20 -2.34315e-16 2.28162e-16)
(20 -2.13812e-16 7.07238e-16)
(20 -1.89433e-16 -4.37835e-16)
(20 -7.06318e-16 7.8044e-17)
(20 5.80503e-17 -3.98131e-16)
(20 9.04576e-16 -2.92826e-16)
(20 7.21499e-16 -1.89351e-16)
(20 5.632e-16 1.49485e-16)
(20 2.75599e-16 -3.15879e-16)
(20 1.54746e-16 -1.07414e-16)
(20 1.33224e-16 1.26252e-16)
(20 -3.83183e-17 1.41162e-16)
(20 -5.33885e-16 -1.94798e-16)
(20 -7.96759e-16 1.21279e-16)
(20 -7.60964e-16 -4.47987e-17)
(20 -1.37712e-15 -3.27942e-17)
(20 -3.95793e-16 -2.19054e-16)
(20 6.59495e-16 4.53297e-16)
(20 5.3779e-16 2.90789e-16)
(20 4.01519e-16 -1.23714e-16)
(20 8.83776e-16 -4.30332e-16)
(20 1.074e-15 -7.59229e-17)
(20 -3.16799e-16 -3.32379e-17)
(20 1.2326e-16 -5.26375e-16)
(20 9.34271e-16 -1.83362e-16)
(20 3.61949e-16 1.45782e-16)
(20 -7.05975e-16 4.91674e-16)
(20 -6.931e-16 8.73623e-17)
(20 1.47131e-16 -3.5307e-16)
(20 4.94934e-16 -9.44162e-18)
(20 3.39688e-17 -1.70994e-16)
(20 -6.06402e-16 -3.92422e-16)
(20 -1.03082e-15 -1.08164e-16)
(20 -1.24182e-15 9.0928e-16)
(20 -7.39338e-16 3.21473e-16)
(20 -5.46105e-16 3.91237e-16)
(20 1.57572e-17 -1.93342e-16)
(20 9.90347e-16 -2.75046e-16)
(20 9.80435e-16 -4.53267e-16)
(20 5.87945e-16 3.88194e-16)
(20 3.90572e-16 4.56718e-16)
(20 -3.87926e-17 -1.11943e-16)
(20 -2.59036e-16 -6.76009e-16)
(20 -1.5075e-16 -1.75313e-16)
(20 -9.38454e-16 3.65636e-16)
(20 -3.49302e-16 -3.68473e-16)
(20 6.02524e-16 -3.17498e-16)
(20 6.84298e-16 2.60739e-16)
(20 -1.30578e-15 -8.30955e-17)
(20 -5.22521e-16 1.0638e-16)
(20 4.57033e-16 -3.84124e-16)
(20 -5.53041e-16 2.285e-16)
(20 3.4589e-16 8.71758e-16)
(20 1.21602e-17 -1.22003e-16)
(20 -1.02261e-15 -7.42023e-16)
(20 -9.02859e-16 4.60646e-16)
(20 1.61594e-16 1.25005e-16)
(20 7.70904e-16 -1.49034e-17)
(20 3.22369e-16 -3.86086e-16)
(20 6.97294e-16 9.19022e-17)
(20 -6.61456e-16 4.13783e-16)
(20 3.05037e-16 7.3315e-16)
(20 -5.15842e-16 -8.92329e-17)
(20 -2.50965e-16 -3.70133e-16)
(20 -2.75944e-16 -8.15034e-16)
(20 5.05522e-16 -2.40048e-16)
(20 9.57254e-16 -1.35661e-16)
(20 4.33468e-16 -3.88004e-17)
(20 -1.82132e-17 2.97284e-17)
(20 -1.04508e-15 -2.75006e-16)
(20 -3.54619e-16 2.19946e-16)
(20 8.07743e-17 3.13576e-17)
(20 -3.27999e-16 9.01657e-17)
(20 -5.30519e-17 3.44222e-16)
(20 -2.92262e-16 2.38169e-16)
(20 -8.39558e-16 8.02972e-17)
(20 -5.3669e-16 5.89866e-17)
(20 9.88596e-18 2.72249e-16)
(20 8.86982e-16 2.49551e-16)
(20 7.7078e-16 -4.13424e-17)
(20 6.09108e-16 -6.57171e-16)
(20 3.25457e-16 -3.9287e-16)
(20 -7.05798e-16 2.61384e-16)
(20 -8.04433e-16 2.87696e-16)
(20 1.085e-15 -2.558e-16)
(20 1.01591e-15 -3.23603e-16)
(20 -4.73754e-16 2.11573e-16)
(20 -1.72115e-17 -1.52457e-16)
(20 3.59388e-16 -2.05191e-16)
(20 7.5753e-17 6.53587e-17)
(20 -6.02549e-16 -3.93265e-16)
(20 -6.06393e-16 -2.74045e-16)
(20 -1.94881e-16 3.36443e-16)
(20 -2.70499e-16 2.24369e-16)
(20 4.70113e-16 -1.03454e-16)
(20 3.67599e-16 2.89161e-16)
(20 3.54261e-16 -8.58126e-17)
(20 5.16069e-17 1.81763e-16)
(20 -8.8256e-16 -5.12527e-16)
(20 8.39066e-17 -2.96533e-16)
(20 9.64335e-16 -2.02024e-16)
(20 -1.07983e-17 -1.49393e-17)
(20 -3.12903e-16 3.84219e-17)
(20 3.23646e-16 2.33637e-16)
(20 -5.03852e-16 4.49525e-16)
(20 -7.38048e-16 2.54306e-16)
(20 1.2671e-15 -3.20604e-17)
(20 -4.96221e-16 2.22952e-16)
(20 8.50028e-17 7.22888e-16)
(20 4.15131e-16 -7.08423e-17)
(20 -1.03558e-15 -7.82772e-17)
(20 -4.73282e-16 4.46114e-16)
(20 7.09919e-16 5.47645e-16)
(20 -1.8953e-15 -1.80125e-16)
(20 -5.45744e-16 3.59023e-16)
(20 1.05011e-15 4.28862e-16)
(20 5.13684e-16 -2.50481e-16)
(20 4.88874e-16 -7.13702e-16)
(20 2.33743e-16 -3.68702e-16)
(20 -5.07781e-17 -1.51303e-16)
(20 -4.33427e-16 6.37786e-16)
(20 5.30438e-16 9.18411e-16)
(20 1.80118e-16 1.29516e-16)
(20 -7.31391e-16 -1.29835e-16)
(20 -4.73018e-16 -1.46077e-16)
(20 5.21266e-16 -5.94778e-16)
(20 1.31467e-15 -4.32207e-16)
(20 1.04142e-15 1.74566e-16)
(20 1.28768e-16 -4.19751e-17)
(20 -1.31271e-15 2.40131e-16)
(20 -2.38282e-16 9.63245e-16)
(20 -2.44914e-16 -3.68206e-16)
(20 -4.04696e-16 -4.56559e-16)
(20 7.92434e-17 1.02883e-16)
(20 -6.51805e-17 2.54395e-16)
(20 -3.13117e-16 -1.69762e-16)
(20 -1.79856e-16 -6.53266e-17)
(20 -2.53623e-16 2.8522e-17)
(20 8.857e-16 7.83872e-17)
(20 9.02013e-16 1.18633e-16)
(20 2.41132e-16 -3.07481e-16)
(20 7.68867e-16 -2.85978e-17)
(20 5.10504e-16 4.91458e-16)
(20 -1.10976e-16 3.81174e-16)
(20 4.21657e-16 -3.01829e-16)
(20 1.76325e-16 -1.344e-16)
(20 -6.66599e-16 -1.14472e-16)
(20 -6.18053e-16 -5.85899e-16)
(20 3.18246e-17 -4.29328e-16)
(20 -6.65834e-16 9.80286e-17)
(20 -6.9361e-16 1.76049e-16)
(20 6.74922e-17 -4.1505e-17)
(20 7.46645e-16 -2.32738e-16)
(20 6.36902e-16 8.61607e-17)
(20 5.48587e-16 1.60823e-19)
(20 6.64825e-17 2.44982e-16)
(20 2.53063e-16 5.33716e-17)
(20 5.02468e-16 -8.72212e-17)
(20 -1.82784e-16 3.06698e-16)
(20 -8.19778e-16 -1.39974e-17)
(20 -2.74401e-17 -8.68273e-16)
(20 -9.13931e-16 -2.5698e-16)
(20 -7.61919e-16 -2.93624e-16)
(20 1.93621e-16 -5.69065e-17)
(20 9.62183e-17 2.95819e-16)
(20 -3.83385e-16 -3.68052e-16)
(20 8.00938e-17 3.02981e-16)
(20 7.98021e-16 1.81019e-17)
(20 5.81573e-16 -1.33719e-16)
(20 5.29306e-16 4.02519e-17)
(20 -8.77857e-16 -3.40075e-16)
(20 2.95496e-16 3.93634e-16)
(20 -9.26267e-16 -6.3727e-17)
(20 8.04341e-16 3.85222e-16)
(20 -4.45903e-18 7.23085e-16)
(20 9.26753e-16 -4.27975e-16)
(20 -2.96834e-16 -3.16812e-16)
(20 -7.39561e-16 -4.78521e-16)
(20 -6.63918e-18 -1.74083e-16)
(20 -4.5426e-16 4.89052e-16)
(20 8.04565e-16 9.1891e-16)
(20 6.82217e-16 3.63311e-16)
(20 8.49424e-16 -1.93889e-16)
(20 -3.58857e-16 2.06105e-16)
(20 6.94938e-18 -3.07139e-16)
(20 7.45163e-17 -6.81919e-16)
(20 9.12681e-16 -4.05779e-17)
(20 8.0466e-16 7.17001e-18)
(20 -1.86374e-16 -1.43678e-16)
(20 -1.19272e-16 3.45618e-16)
(20 2.39707e-16 6.9082e-16)
(20 -7.96914e-16 4.11893e-17)
(20 -6.48091e-16 -3.56564e-16)
(20 8.60963e-17 1.49261e-16)
(20 1.51325e-16 2.6875e-16)
(20 -1.09762e-17 -3.08367e-16)
(20 -4.47885e-16 -2.26681e-16)
(20 -9.06957e-16 -3.24294e-19)
(20 3.65948e-16 -6.73358e-17)
(20 1.21103e-15 1.33405e-16)
(20 5.18601e-16 -2.97815e-16)
(20 1.52215e-15 -1.16607e-16)
(20 1.45455e-15 6.22085e-16)
(20 6.469e-16 2.70297e-16)
(20 1.00903e-16 -1.3483e-16)
(20 -2.12001e-16 1.41388e-16)
(20 -1.24299e-15 1.03047e-16)
(20 -2.14078e-15 -2.35341e-16)
(20 -1.06216e-15 -2.97691e-16)
(20 -3.09641e-16 1.26676e-16)
(20 -2.53524e-18 1.13229e-16)
(20 -2.59461e-16 -3.55305e-16)
(20 8.30858e-17 -6.31708e-16)
(20 1.26734e-15 -2.33023e-16)
(20 6.56134e-17 1.3607e-16)
(20 -7.98948e-16 8.35826e-17)
(20 -3.7717e-16 -6.37628e-17)
(20 2.98741e-17 4.21769e-17)
(20 1.25927e-15 -3.25203e-16)
(20 6.96879e-16 1.57198e-16)
(20 -1.42574e-16 -3.2742e-16)
(20 -1.62496e-15 3.31324e-17)
(20 -1.35512e-15 -1.05458e-16)
(20 5.40955e-16 3.48235e-16)
(20 2.73239e-16 3.47388e-16)
(20 9.77303e-16 -5.15964e-16)
(20 -2.03134e-16 7.196e-16)
(20 6.1795e-16 -7.75031e-17)
(20 -4.20919e-17 2.75278e-16)
(20 -5.32466e-16 -1.26084e-17)
(20 2.93742e-16 -2.11781e-16)
(20 -3.60152e-16 9.58009e-17)
(20 -9.98541e-16 -1.68539e-16)
(20 6.84567e-16 3.44709e-16)
(20 3.97946e-16 -1.13242e-16)
(20 -3.83543e-16 -6.76456e-16)
(20 -1.02038e-15 2.38942e-17)
(20 -4.69691e-16 -5.16233e-16)
(20 2.59359e-17 -4.83609e-16)
(20 -1.58303e-16 2.36943e-16)
(20 1.56825e-15 3.21089e-16)
(20 1.15295e-15 5.69303e-16)
(20 5.0853e-16 -7.34099e-17)
(20 6.48004e-16 3.7283e-16)
(20 7.93425e-16 1.94572e-17)
(20 6.62207e-16 -1.37718e-16)
(20 4.22934e-16 -8.58811e-17)
(20 1.62489e-16 -5.29807e-16)
(20 -1.1083e-16 -1.32153e-16)
(20 -2.22164e-16 5.51517e-16)
(20 3.96714e-18 5.55435e-16)
(20 3.50055e-17 2.81675e-16)
(20 -9.30116e-17 -6.63928e-16)
(20 -3.20427e-16 -4.68148e-16)
(20 -4.59409e-17 -9.94075e-17)
(20 8.61167e-17 -2.99639e-16)
(20 -7.24881e-16 -4.40483e-17)
(20 -5.9991e-16 5.29807e-16)
(20 1.45039e-16 2.79162e-16)
(20 1.21161e-16 9.47821e-17)
(20 -3.14993e-17 -1.36567e-17)
(20 7.82957e-16 1.8623e-17)
(20 1.02181e-15 3.601e-16)
(20 2.21351e-16 -1.17316e-16)
(20 -5.11937e-17 -4.33759e-16)
(20 1.33972e-16 4.03063e-17)
(20 -7.92543e-16 2.8094e-16)
(20 -1.21486e-15 1.66522e-16)
(20 -7.36045e-16 -2.16782e-16)
(20 -6.82252e-17 -2.61299e-17)
(20 2.21649e-16 3.22688e-16)
(20 -7.45717e-16 5.53785e-17)
(20 -9.76547e-16 -3.73416e-16)
(20 4.00863e-17 1.3731e-16)
(20 -5.82318e-16 5.84783e-17)
(20 -7.84083e-16 1.83516e-16)
(20 -1.52309e-16 -6.37166e-18)
(20 1.09544e-15 6.29948e-16)
(20 6.64498e-16 -4.35517e-16)
(20 5.92394e-16 -8.19235e-17)
(20 -1.48624e-16 -4.47272e-16)
(20 -6.06814e-16 -4.33131e-16)
(20 -1.02485e-15 8.60844e-17)
(20 7.55832e-16 1.22932e-16)
(20 9.71441e-16 3.35736e-16)
(20 -1.37264e-15 -1.01292e-16)
(20 -5.19839e-16 -5.58809e-18)
(20 -1.98291e-16 2.77519e-16)
(20 -1.31524e-16 -2.89806e-16)
(20 -6.44655e-16 3.52492e-16)
(20 1.26524e-15 -8.75346e-18)
(20 -3.46197e-16 -5.92264e-17)
(20 1.13745e-15 -1.83902e-17)
(20 -2.04101e-16 2.60539e-16)
(20 3.12715e-17 -5.96923e-17)
(20 -2.19988e-16 -2.68574e-16)
(20 2.43015e-16 2.26327e-16)
(20 -8.10097e-17 -4.04266e-16)
(20 -1.62574e-16 3.58875e-16)
(20 -1.202e-15 4.68393e-16)
(20 1.1647e-16 -9.04061e-17)
(20 1.14496e-15 -9.94613e-18)
(20 1.04381e-15 -2.12046e-16)
(20 1.50928e-15 1.91739e-16)
(20 1.07094e-15 -3.03451e-16)
(20 1.09165e-15 -1.37225e-16)
(20 6.61707e-16 5.88203e-17)
(20 -5.23227e-16 -1.54382e-16)
(20 -4.09585e-16 -1.34898e-16)
(20 -7.90706e-16 2.3987e-16)
(20 3.45088e-17 5.67621e-16)
(20 -1.77488e-16 -5.54627e-16)
(20 -4.42488e-17 -4.64385e-16)
(20 -6.49254e-16 -9.27182e-17)
(20 -5.09204e-16 8.45615e-17)
(20 -5.91937e-16 -3.22916e-16)
(20 -6.53586e-16 1.45534e-16)
(20 8.88188e-16 1.83417e-16)
(20 5.77891e-16 -1.11288e-16)
(20 -5.06193e-16 -2.01191e-17)
(20 -1.43134e-16 -1.83064e-16)
(20 1.05446e-16 -2.34155e-16)
(20 -8.00996e-17 -1.10526e-17)
(20 -5.52552e-16 2.33215e-16)
(20 -9.11382e-16 -1.09943e-16)
(20 -1.22201e-16 3.32106e-16)
(20 3.22245e-16 4.78416e-16)
(20 4.10791e-16 -9.37224e-19)
(20 -5.45067e-16 -5.33868e-16)
(20 -6.52345e-16 -4.01466e-16)
(20 4.422e-17 2.14324e-16)
(20 -6.14099e-16 1.11159e-16)
(20 -7.49137e-16 2.77422e-16)
(20 3.59977e-16 2.85224e-16)
(20 -3.09967e-16 2.45497e-16)
(20 3.33156e-16 2.0443e-16)
(20 1.60145e-17 -4.50617e-16)
(20 2.16773e-15 -2.01098e-16)
(20 5.21697e-16 5.36294e-16)
(20 -3.22853e-16 -1.83975e-16)
(20 -9.1005e-16 -8.1087e-16)
(20 -1.11271e-15 -4.1273e-16)
(20 -1.37738e-15 8.52027e-16)
(20 -5.67535e-16 -1.17949e-16)
(20 1.54442e-15 -3.48465e-16)
(20 -2.59424e-16 5.46517e-16)
(20 -2.00811e-15 1.94653e-16)
(20 2.63589e-16 -5.71883e-17)
(20 1.93174e-16 2.51826e-16)
(20 2.50149e-16 1.63719e-17)
(20 6.70558e-17 -1.85549e-16)
(20 6.71971e-16 6.94285e-17)
(20 -6.19531e-17 -1.89184e-16)
(20 -4.65208e-17 1.9961e-17)
(20 2.03066e-17 -6.83224e-16)
(20 2.70177e-16 -2.25501e-16)
(20 5.40228e-16 8.17057e-17)
(20 -3.06857e-16 -1.42937e-16)
(20 7.21394e-17 3.67503e-16)
(20 -6.89746e-16 4.86504e-16)
(20 -5.40607e-16 2.47413e-16)
(20 3.11784e-16 1.66705e-16)
(20 1.78183e-15 -4.13334e-16)
(20 1.76045e-15 1.02342e-16)
(20 6.24815e-16 3.86143e-16)
(20 5.07691e-16 -7.81257e-16)
(20 5.94043e-17 -3.93461e-16)
(20 -5.39256e-16 2.40908e-16)
(20 -9.30945e-16 3.22412e-16)
(20 -9.26347e-16 6.59269e-16)
(20 2.3669e-16 -1.72188e-17)
(20 -2.53275e-16 -4.21669e-16)
(20 -3.13024e-16 -1.38767e-16)
(20 -5.29549e-17 -1.07032e-17)
(20 3.48222e-16 3.46094e-16)
(20 3.40125e-16 -1.17359e-16)
(20 3.20094e-16 6.08884e-16)
(20 1.14586e-15 -6.51425e-17)
(20 4.19443e-16 -1.61353e-16)
(20 3.75919e-16 1.19632e-16)
(20 6.64631e-16 -1.88915e-17)
(20 -1.99732e-16 -2.44105e-16)
(20 -8.23112e-16 -4.94855e-17)
(20 -1.9516e-16 1.36644e-16)
(20 -4.70784e-16 1.68626e-16)
(20 -1.56592e-16 3.57048e-16)
(20 8.66832e-16 9.1704e-17)
(20 9.27408e-16 -3.36916e-16)
(20 -1.2187e-15 -2.79422e-16)
(20 -1.39418e-15 -1.28706e-18)
(20 -4.88139e-16 4.66156e-16)
(20 -8.76084e-16 -1.08941e-16)
(20 -6.09612e-16 -1.00027e-16)
(20 5.63917e-16 1.99908e-16)
(20 1.38906e-16 5.82926e-16)
(20 1.15255e-15 -8.21258e-17)
(20 5.11707e-17 -3.27878e-16)
(20 1.38655e-15 -9.11434e-16)
(20 4.87805e-16 1.04538e-16)
(20 3.32344e-16 5.87543e-17)
(20 -9.74398e-16 -5.2241e-16)
(20 -1.47088e-15 -2.03841e-16)
(20 -7.86417e-16 8.12116e-16)
(20 -7.41246e-16 -2.50089e-16)
(20 8.28015e-16 -3.26322e-16)
(20 5.46707e-16 -6.89993e-17)
(20 -4.97038e-16 -3.66137e-16)
(20 8.52521e-16 -3.82551e-17)
(20 -1.88974e-15 7.99015e-16)
(20 3.41321e-16 2.31605e-16)
(20 1.12894e-15 1.36155e-16)
(20 -1.26741e-16 8.69364e-17)
(20 2.65659e-16 -2.48822e-16)
(20 -6.76935e-16 -1.55609e-16)
(20 -9.54389e-16 -3.83848e-16)
(20 3.74652e-16 1.43215e-16)
(20 -6.11777e-16 8.97825e-17)
(20 -2.2296e-16 1.7442e-16)
(20 -1.62481e-16 1.1781e-16)
(20 2.71331e-16 1.5088e-16)
(20 9.64382e-18 6.73238e-17)
(20 1.19628e-15 4.33979e-16)
(20 1.2761e-15 -2.43953e-16)
(20 1.20537e-15 -1.99123e-16)
(20 1.24785e-15 2.44433e-17)
(20 3.18326e-16 -4.13013e-16)
(20 -1.31168e-15 -8.4306e-17)
(20 -9.21953e-16 1.4686e-16)
(20 -9.87408e-16 6.21544e-17)
(20 6.3655e-16 7.90554e-16)
(20 7.37906e-16 -5.31655e-16)
(20 -3.77847e-16 -4.05727e-16)
(20 -1.41202e-15 -7.04326e-17)
(20 -1.12282e-16 -3.97735e-16)
(20 1.87459e-15 1.13607e-16)
(20 1.69801e-15 -1.27456e-16)
(20 1.18549e-15 1.09593e-16)
(20 5.38788e-16 -1.24839e-16)
(20 -4.67069e-16 1.73224e-16)
(20 2.90293e-16 1.51965e-17)
(20 1.11879e-15 -2.2327e-16)
(20 4.89477e-16 -3.63271e-16)
(20 6.62546e-17 4.55272e-16)
(20 -1.60008e-16 5.17704e-16)
(20 4.37259e-16 -1.36766e-18)
(20 2.96278e-16 3.02009e-17)
(20 7.31127e-16 -5.02705e-16)
(20 3.35088e-16 -6.90653e-16)
(20 -1.5092e-15 -1.0458e-16)
(20 -4.89348e-16 5.30153e-16)
(20 5.33432e-16 6.84085e-16)
(20 -1.05889e-15 -1.19901e-16)
(20 -1.03774e-15 3.91107e-17)
(20 -2.89411e-17 6.47799e-16)
(20 1.81437e-16 3.59596e-16)
(20 9.07148e-16 -1.57141e-16)
(20 1.7665e-16 -1.44932e-16)
(20 -1.39664e-16 -6.59557e-16)
(20 5.76563e-16 -1.28912e-16)
(20 5.92051e-16 1.28337e-16)
(20 -5.24482e-16 -1.55026e-16)
(20 -1.07138e-15 1.91995e-18)
(20 -4.1327e-16 1.41781e-16)
(20 6.22719e-17 -2.87208e-16)
(20 7.08978e-16 -4.88995e-16)
(20 -4.88055e-16 3.31707e-16)
(20 1.5243e-16 -5.38348e-16)
(20 3.02621e-17 -1.08993e-16)
(20 -5.27369e-16 2.31268e-16)
(20 5.55066e-16 3.06765e-16)
(20 1.07368e-15 -3.07861e-16)
(20 6.42577e-16 1.66699e-16)
(20 -1.77949e-16 -2.61014e-16)
(20 4.48872e-16 -4.57737e-16)
(20 -1.37589e-17 2.14834e-18)
(20 1.94462e-16 -2.13147e-16)
(20 -4.01763e-16 2.9063e-16)
(20 3.00129e-16 9.17809e-17)
(20 -1.68248e-16 2.30096e-16)
(20 9.75108e-16 3.5791e-16)
(20 4.0093e-16 -3.00843e-16)
(20 6.52645e-16 -9.66994e-17)
(20 -3.35087e-16 -4.04796e-16)
(20 -6.60458e-17 -2.7011e-16)
(20 8.9782e-16 -1.65491e-17)
(20 6.18042e-16 -1.31701e-16)
(20 -2.28542e-16 5.78631e-17)
(20 -8.76705e-17 3.07469e-16)
(20 -6.16078e-16 2.34231e-16)
(20 7.61783e-16 2.04067e-16)
(20 -1.16885e-16 -1.7387e-16)
(20 -9.01468e-16 1.49474e-16)
(20 -1.38892e-15 4.57823e-16)
(20 -2.16211e-16 -4.9697e-16)
(20 1.03241e-15 -6.18351e-16)
(20 9.30167e-16 -1.21477e-16)
(20 4.4993e-16 -3.26524e-16)
(20 6.76049e-16 -9.37521e-17)
(20 9.08729e-16 7.22281e-16)
(20 6.50364e-16 5.03735e-16)
(20 -2.13673e-16 -5.66307e-16)
(20 -1.83089e-16 -5.62103e-16)
(20 8.07615e-16 4.33812e-16)
(20 2.40497e-16 6.14402e-16)
(20 7.12681e-16 1.86038e-17)
(20 2.43686e-16 -5.94183e-16)
(20 -8.75923e-16 -5.27104e-16)
(20 -6.08905e-16 -7.21828e-16)
(20 -6.12416e-16 4.8182e-17)
(20 8.0042e-16 1.11472e-16)
(20 5.89863e-16 -6.04271e-17)
(20 -2.83843e-16 4.77325e-16)
(20 -8.67587e-16 7.74631e-16)
(20 6.87444e-16 4.69564e-16)
(20 3.68356e-16 4.43518e-16)
(20 1.9137e-16 -1.07611e-16)
(20 -1.88205e-16 -4.04018e-16)
(20 -1.30157e-15 -5.64464e-16)
(20 1.25388e-16 -3.91042e-16)
(20 -1.04297e-16 2.15088e-16)
(20 2.13084e-16 3.04099e-16)
(20 -3.80739e-16 -1.31018e-16)
(20 -1.15261e-16 -1.59699e-17)
(20 -2.39925e-16 -5.01264e-16)
(20 -5.6434e-16 -8.36278e-16)
(20 5.3024e-18 3.26941e-16)
(20 2.88445e-16 -5.80762e-16)
(20 1.1645e-15 3.46886e-16)
(20 7.05862e-16 -4.20461e-16)
(20 -7.91525e-16 -9.52666e-17)
(20 -1.35411e-16 2.31709e-16)
(20 -2.18685e-16 3.84361e-17)
(20 5.73636e-16 6.95674e-16)
(20 7.88401e-16 -1.13773e-16)
(20 -5.5412e-16 2.30666e-16)
(20 -4.72184e-16 3.84436e-16)
(20 -3.87253e-16 -1.61034e-16)
(20 -6.2459e-16 2.32878e-17)
(20 -8.22786e-16 3.34328e-16)
(20 9.22459e-16 -1.79529e-16)
(20 6.04034e-16 -1.17122e-16)
(20 1.66555e-16 -3.26662e-16)
(20 -5.05055e-16 -2.91406e-16)
(20 -2.38151e-16 2.09075e-16)
(20 3.68685e-16 -3.50383e-16)
(20 -1.37133e-16 -4.54342e-16)
(20 -2.4024e-16 -3.94748e-16)
(20 5.0906e-16 2.28148e-16)
(20 1.12893e-15 8.9872e-16)
(20 9.5163e-16 4.5646e-16)
(20 -6.73689e-16 1.75027e-16)
(20 -4.97802e-16 2.61731e-16)
(20 -5.53368e-16 5.01107e-16)
(20 -3.53454e-16 -3.97344e-16)
(20 -1.23096e-15 -5.93751e-16)
(20 -8.89508e-16 -2.19281e-16)
(20 8.80317e-17 4.34453e-17)
(20 9.40787e-16 7.60916e-17)
(20 7.08813e-16 -2.23329e-16)
(20 6.04906e-16 -4.94972e-16)
(20 -4.31081e-16 -1.25595e-16)
(20 -1.80245e-16 3.5679e-16)
(20 5.7239e-16 1.92622e-16)
(20 6.75082e-16 -1.61519e-16)
(20 3.3658e-16 -5.13326e-16)
(20 -2.89138e-16 -3.28513e-16)
(20 -6.90349e-16 3.22657e-16)
(20 -4.96272e-16 -1.77174e-16)
(20 1.36755e-16 -1.15262e-16)
(20 7.82871e-17 -3.50333e-16)
(20 -8.71897e-16 -2.43606e-16)
(20 -3.62673e-16 3.00188e-16)
(20 -8.63057e-16 6.35248e-16)
(20 1.15121e-15 4.83186e-16)
(20 9.18667e-16 2.62388e-16)
(20 2.97502e-16 -2.39886e-16)
(20 1.74933e-16 8.66374e-17)
(20 -1.09073e-15 6.34108e-17)
(20 -8.14576e-16 -2.22606e-16)
(20 1.70847e-16 -2.66982e-16)
(20 5.24933e-16 -2.01896e-17)
(20 -2.74486e-16 -3.65008e-16)
(20 -5.36227e-16 -2.33251e-16)
(20 -1.27452e-15 -4.94424e-17)
(20 4.10083e-17 -4.74715e-16)
(20 1.53222e-16 6.86267e-18)
(20 2.57897e-16 -4.73803e-16)
(20 1.49927e-16 2.52594e-16)
(20 3.00437e-16 1.18044e-16)
(20 5.27647e-16 4.05453e-16)
(20 -5.53314e-16 4.12745e-17)
(20 1.00608e-15 1.50492e-16)
(20 1.80355e-15 -3.70386e-16)
(20 -3.71348e-16 4.24708e-16)
(20 -6.80345e-16 2.99976e-16)
(20 4.53404e-17 -6.87272e-18)
(20 9.06511e-17 -6.27232e-18)
(20 -4.80583e-17 4.63908e-16)
(20 -2.54727e-16 6.93815e-16)
(20 -7.48503e-16 2.36629e-16)
(20 4.3862e-16 -1.3903e-16)
(20 2.88644e-16 -3.66077e-16)
(20 2.24236e-16 -5.26257e-16)
(20 -2.12207e-16 -1.1352e-16)
(20 -3.14347e-16 -5.25082e-16)
(20 -1.14729e-15 5.82618e-17)
(20 -7.68072e-16 3.21693e-16)
(20 3.72321e-16 2.62413e-16)
(20 2.0423e-15 2.97693e-16)
(20 1.33625e-15 3.25628e-16)
(20 -4.96292e-17 3.42608e-16)
(20 -1.14292e-15 3.07857e-16)
(20 -6.11991e-16 2.49436e-16)
(20 -6.51844e-16 -5.26246e-16)
(20 -1.05795e-15 1.93403e-16)
(20 2.47209e-16 4.98373e-16)
(20 8.04946e-16 9.71633e-18)
(20 6.01162e-16 2.60199e-17)
(20 -8.65956e-16 -7.70131e-17)
(20 -6.48767e-16 -2.21404e-16)
(20 -1.6844e-16 -2.46083e-16)
(20 9.05759e-16 -8.5238e-17)
(20 1.11289e-15 1.47738e-17)
(20 1.13743e-15 -1.11828e-16)
(20 -1.46506e-16 -1.92122e-16)
(20 -1.28318e-16 -7.75181e-17)
(20 -9.05514e-17 -8.81872e-17)
(20 -6.61033e-16 -2.96037e-16)
(20 -3.91644e-16 -2.75704e-17)
(20 -9.15106e-17 -3.22938e-16)
(20 -5.98063e-16 6.13598e-17)
(20 -5.07681e-16 2.96545e-16)
(20 -5.22739e-16 6.22333e-16)
(20 7.39063e-16 1.70343e-16)
(20 1.8536e-15 2.39905e-16)
(20 5.26916e-16 -3.54649e-16)
(20 7.6415e-16 3.12529e-18)
(20 -7.76316e-16 5.31065e-17)
(20 -6.18099e-16 4.33264e-16)
(20 8.05581e-16 -2.83964e-16)
(20 3.66413e-16 -3.82159e-16)
(20 -7.89841e-16 2.75511e-17)
(20 -7.2522e-16 -2.12279e-16)
(20 -1.46908e-15 2.63935e-16)
(20 8.62565e-17 -1.21532e-15)
(20 -8.52404e-16 -5.4142e-16)
(20 1.03622e-15 1.90617e-16)
(20 -2.61696e-18 4.91633e-16)
(20 6.23698e-17 6.52597e-16)
(20 2.3345e-16 7.86842e-16)
(20 8.97915e-16 -8.51371e-16)
(20 4.20741e-16 -7.20268e-16)
(20 4.56374e-16 -2.79843e-16)
(20 -8.97988e-16 -1.08424e-16)
(20 6.44537e-16 5.12161e-17)
(20 7.12442e-17 -6.57381e-18)
(20 -5.23522e-17 -1.60001e-18)
(20 8.08423e-16 1.51049e-16)
(20 8.00325e-16 7.56741e-17)
(20 -6.33111e-16 5.7754e-16)
(20 -2.78482e-16 -2.53949e-16)
(20 2.37778e-16 2.46192e-16)
(20 4.43944e-16 -2.09876e-16)
(20 -4.72813e-16 -2.35851e-17)
(20 -5.73058e-16 -6.06086e-16)
(20 1.38145e-17 2.37441e-16)
(20 -8.40445e-16 3.9993e-16)
(20 2.07359e-16 1.13288e-16)
(20 1.85947e-15 -1.88898e-16)
(20 9.97223e-16 -1.09476e-16)
(20 -2.75258e-16 4.70536e-17)
(20 -1.02965e-15 6.41797e-16)
(20 -2.50409e-16 4.15403e-16)
(20 -5.58845e-16 2.78946e-16)
(20 3.84507e-16 3.61791e-16)
(20 8.44256e-16 1.36825e-16)
(20 1.24239e-16 -3.3024e-16)
(20 1.85693e-16 -1.47735e-17)
(20 1.6562e-16 4.8981e-17)
(20 -2.66409e-16 -3.08331e-16)
(20 -9.10197e-17 -1.47032e-16)
(20 -6.01864e-17 -2.61819e-16)
(20 3.86521e-16 -2.20191e-16)
(20 6.83928e-16 -3.39754e-16)
(20 1.50048e-16 7.67064e-17)
(20 5.39929e-16 3.49795e-16)
(20 5.19176e-16 4.21809e-16)
(20 -5.76459e-16 -4.82857e-16)
(20 -7.87095e-16 -1.53519e-16)
(20 -5.33485e-16 -3.00641e-17)
(20 -5.88379e-16 2.9302e-16)
(20 -6.51601e-16 2.27313e-16)
(20 -2.1025e-16 1.07576e-16)
(20 6.09706e-16 4.71542e-16)
(20 1.69757e-15 2.41648e-16)
(20 -6.78354e-16 -6.06955e-16)
(20 -1.3962e-16 6.68315e-17)
(20 -6.31678e-16 4.93077e-16)
(20 1.92097e-16 -3.75381e-17)
(20 4.18628e-16 -1.00401e-16)
(20 -2.88146e-16 -7.25686e-16)
(20 -1.2993e-16 1.24829e-16)
(20 -8.46829e-16 -5.27565e-16)
(20 -5.41845e-16 -2.13854e-16)
(20 -5.74121e-16 -7.15614e-16)
(20 -3.16093e-16 2.43048e-16)
(20 9.5168e-16 3.21135e-16)
(20 1.26212e-16 4.86829e-16)
(20 2.27812e-16 4.28776e-16)
(20 -4.82763e-16 3.18911e-16)
(20 -1.24329e-15 -6.70775e-16)
(20 2.60122e-16 -4.33313e-16)
(20 3.91464e-16 -6.74005e-17)
(20 3.38942e-16 1.71833e-16)
(20 9.54126e-16 -2.28897e-16)
(20 -9.63889e-17 1.93195e-16)
(20 -8.31706e-16 3.83251e-16)
(20 4.22875e-16 3.14675e-16)
(20 3.40742e-16 -5.64423e-17)
(20 4.63574e-16 2.5208e-16)
(20 -3.43644e-16 -4.46583e-16)
(20 3.49461e-17 -3.94514e-16)
(20 5.5735e-16 -3.69864e-16)
(20 -4.08373e-16 1.13869e-16)
(20 3.51756e-16 3.58294e-16)
(20 6.14765e-16 -1.6693e-16)
(20 -6.92966e-16 6.44911e-16)
(20 2.41206e-16 6.94522e-17)
(20 1.1407e-15 -3.77815e-16)
(20 1.59154e-16 -2.52168e-16)
(20 -1.20364e-15 2.24463e-16)
(20 -4.29217e-16 6.67385e-16)
(20 4.61814e-16 3.64761e-16)
(20 1.19142e-16 4.07707e-17)
(20 5.68018e-16 -4.92734e-19)
(20 -2.89529e-16 1.2239e-16)
(20 -9.157e-16 -1.05367e-16)
(20 -4.80415e-16 -1.35353e-16)
(20 3.45215e-16 -2.32747e-16)
(20 -4.01561e-16 -4.1557e-16)
(20 1.29624e-16 -2.4988e-16)
(20 4.41537e-16 7.48785e-17)
(20 6.63919e-17 2.16106e-16)
(20 -3.86703e-17 2.08467e-16)
(20 3.09766e-16 1.74181e-16)
(20 1.11606e-15 -1.16228e-16)
(20 1.72514e-15 -1.26847e-16)
(20 4.66136e-16 -2.60764e-16)
(20 -6.69808e-16 2.92221e-17)
(20 -1.52237e-15 -1.95055e-17)
(20 -1.30961e-15 2.56761e-17)
(20 -1.16261e-15 2.33157e-16)
(20 -9.35854e-16 4.31039e-16)
(20 -8.05264e-17 1.37414e-16)
(20 4.79294e-16 1.53676e-16)
(20 -3.48431e-16 2.86243e-16)
(20 8.41502e-17 1.26476e-16)
(20 6.77944e-16 2.99454e-16)
(20 3.24486e-16 2.93703e-16)
(20 8.30908e-18 8.8546e-17)
(20 -1.20068e-15 -3.88793e-16)
(20 -6.47915e-16 -2.96352e-16)
(20 -3.51278e-16 -4.38072e-16)
(20 6.03503e-16 -1.49626e-16)
(20 -4.13393e-16 -7.07117e-16)
(20 1.70135e-15 5.05834e-16)
(20 -1.70831e-16 -1.12092e-16)
(20 1.78279e-16 2.57872e-16)
(20 4.19219e-16 1.47774e-16)
(20 -6.95498e-16 -1.0299e-18)
(20 -3.92135e-16 5.54818e-16)
(20 -2.28782e-16 -4.9167e-16)
(20 4.97913e-16 -9.06377e-17)
(20 4.93106e-16 1.00249e-16)
(20 1.4293e-16 -2.84652e-16)
(20 -9.70034e-17 1.68077e-17)
(20 -6.43828e-16 2.80506e-16)