/*--------------------------------*- C++ -*----------------------------------*\
  =========                 |
  \\      /  F ield         | OpenFOAM: The Open Source CFD Toolbox
   \\    /   O peration     | Website:  https://openfoam.org
    \\  /    A nd           | Version:  13
     \\/     M anipulation  |
\*---------------------------------------------------------------------------*/
FoamFile
{
    format      ascii;
    class       volScalarField;
    location    "3";
    object      nut;
}
// * * * * * * * * * * * * * * * * * * * * * * * * * * * * * * * * * * * * * //

dimensions      [0 2 -1 0 0 0 0];

internalField   nonuniform List<scalar> 
54636
(
0.0258387
0.0187014
0.0166304
0.0160516
0.0158948
0.0158522
0.0158394
0.0158336
0.0158293
0.0158243
0.0158175
0.0158077
0.0157937
0.0157752
0.0157532
0.0157302
0.0157113
0.0156994
0.0156986
0.015709
0.0157265
0.0157485
0.0157707
0.0157899
0.0158057
0.0158176
0.0158261
0.0158324
0.0158366
0.0158394
0.0158411
0.0158422
0.0158428
0.0158434
0.0158435
0.0158437
0.0158438
0.0158435
0.0158435
0.0158436
0.0158436
0.0158436
0.0158436
0.0158436
0.0158436
0.0158436
0.0158436
0.0158436
0.0158436
0.0158436
0.0158436
0.0158436
0.0158436
0.0158436
0.0158436
0.0158436
0.0158436
0.0158436
0.0158431
0.0157654
0.0420444
0.0378341
0.0358642
0.0350016
0.0346423
0.0344972
0.0344386
0.0344137
0.0344002
0.0343899
0.0343781
0.0343621
0.0343401
0.0343129
0.0342806
0.0342501
0.0342274
0.034215
0.0342152
0.0342305
0.0342558
0.034288
0.0343199
0.0343479
0.0343698
0.0343863
0.0343981
0.0344062
0.0344117
0.0344152
0.0344172
0.0344186
0.034419
0.0344195
0.0344197
0.0344198
0.0344198
0.0344197
0.0344196
0.0344196
0.0344195
0.0344195
0.0344195
0.0344195
0.0344195
0.0344194
0.0344194
0.0344194
0.0344194
0.0344194
0.0344194
0.0344194
0.0344194
0.0344194
0.0344194
0.0344194
0.0344194
0.0344194
0.0344184
0.0343093
0.0466668
0.0446359
0.0435604
0.043033
0.042788
0.0426788
0.0426308
0.0426089
0.0425979
0.0425905
0.0425831
0.0425736
0.0425607
0.0425485
0.0425313
0.0425137
0.0425005
0.0424937
0.0424947
0.0425078
0.0425262
0.0425441
0.0425608
0.0425753
0.0425864
0.0425946
0.0426001
0.0426038
0.0426061
0.0426074
0.0426081
0.0426083
0.0426084
0.0426083
0.0426082
0.0426082
0.0426081
0.042608
0.0426079
0.0426079
0.0426079
0.0426078
0.0426078
0.0426078
0.0426078
0.0426078
0.0426077
0.0426077
0.0426077
0.0426077
0.0426077
0.0426077
0.0426077
0.0426077
0.0426077
0.0426077
0.0426077
0.0426077
0.042607
0.0425352
0.0482631
0.0471745
0.0465796
0.0462776
0.0461323
0.0460649
0.0460341
0.0460201
0.0460132
0.0460093
0.0460064
0.046003
0.0460022
0.0461346
0.0462062
0.0462327
0.0462405
0.0462495
0.0462512
0.0462617
0.0462741
0.0461602
0.0460878
0.0460495
0.0460316
0.046024
0.0460208
0.0460197
0.0460192
0.0460188
0.0460185
0.0460183
0.046018
0.0460178
0.0460176
0.0460175
0.0460174
0.0460173
0.0460172
0.0460172
0.0460171
0.0460171
0.0460171
0.0460171
0.0460171
0.0460171
0.0460171
0.0460171
0.0460171
0.0460171
0.0460171
0.0460171
0.0460171
0.0460171
0.0460171
0.0460171
0.0460171
0.0460171
0.0460167
0.0459737
0.0489456
0.0482827
0.0479189
0.0477332
0.0476431
0.0476009
0.0475815
0.0475727
0.0475687
0.047567
0.0475667
0.0475686
0.0476686
0.0482537
0.0489117
0.048966
0.0489759
0.0490031
0.0489809
0.0489796
0.048985
0.0485255
0.0480429
0.0477926
0.0476717
0.047616
0.0475912
0.0475803
0.0475755
0.0475732
0.0475721
0.0475714
0.047571
0.0475707
0.0475705
0.0475704
0.0475703
0.0475702
0.0475701
0.0475701
0.0475701
0.0475701
0.04757
0.04757
0.04757
0.04757
0.04757
0.04757
0.04757
0.04757
0.04757
0.04757
0.04757
0.04757
0.04757
0.04757
0.04757
0.04757
0.0475698
0.0475427
0.0492934
0.0488493
0.0486059
0.0484818
0.0484216
0.0483933
0.0483804
0.0483746
0.0483721
0.0483715
0.0483726
0.0483871
0.0488278
0.0494578
0.0496453
0.0496451
0.049562
0.0496357
0.0496426
0.0495626
0.0495668
0.0491302
0.0487722
0.0485722
0.0484688
0.0484182
0.0483943
0.0483833
0.0483782
0.0483757
0.0483745
0.0483738
0.0483734
0.0483731
0.0483729
0.0483728
0.0483727
0.0483727
0.0483726
0.0483726
0.0483726
0.0483725
0.0483725
0.0483725
0.0483725
0.0483725
0.0483725
0.0483725
0.0483725
0.0483725
0.0483725
0.0483725
0.0483725
0.0483725
0.0483725
0.0483725
0.0483725
0.0483725
0.0483723
0.048354
0.0494938
0.049176
0.049002
0.0489134
0.0488704
0.0488504
0.0488412
0.0488371
0.0488354
0.0488352
0.0488364
0.0488484
0.0492729
0.0497137
0.0499063
0.0499103
0.0498883
0.0499028
0.0499062
0.0498856
0.0497965
0.0494009
0.049138
0.0489891
0.048911
0.0488721
0.0488533
0.0488444
0.0488402
0.0488382
0.0488372
0.0488366
0.0488363
0.048836
0.0488359
0.0488358
0.0488357
0.0488357
0.0488356
0.0488356
0.0488356
0.0488356
0.0488356
0.0488356
0.0488356
0.0488356
0.0488356
0.0488356
0.0488356
0.0488356
0.0488356
0.0488356
0.0488356
0.0488356
0.0488356
0.0488356
0.0488356
0.0488356
0.0488354
0.0488223
0.0496197
0.0493811
0.0492506
0.0491843
0.0491521
0.0491371
0.0491303
0.0491273
0.049126
0.0491259
0.0491268
0.0491349
0.0494505
0.0497685
0.0499397
0.0499375
0.0499331
0.049923
0.0499372
0.0499324
0.0498398
0.0495506
0.0493558
0.049244
0.0491845
0.0491546
0.04914
0.0491331
0.0491298
0.0491282
0.0491273
0.0491269
0.0491266
0.0491265
0.0491264
0.0491263
0.0491262
0.0491262
0.0491262
0.0491261
0.0491261
0.0491261
0.0491261
0.0491261
0.0491261
0.0491261
0.0491261
0.0491261
0.0491261
0.0491261
0.0491261
0.0491261
0.0491261
0.0491261
0.0491261
0.0491261
0.0491261
0.0491261
0.049126
0.0491161
0.0497039
0.0495183
0.0494168
0.0493653
0.0493404
0.0493288
0.0493235
0.0493211
0.0493202
0.0493202
0.049321
0.049324
0.0494187
0.0496456
0.0499579
0.0499479
0.0499485
0.0499482
0.0499477
0.0499485
0.0498782
0.0496513
0.0495004
0.0494132
0.0493665
0.0493428
0.0493313
0.0493257
0.0493231
0.0493218
0.0493211
0.0493208
0.0493206
0.0493204
0.0493204
0.0493203
0.0493203
0.0493202
0.0493202
0.0493202
0.0493202
0.0493202
0.0493202
0.0493202
0.0493202
0.0493202
0.0493202
0.0493202
0.0493202
0.0493202
0.0493202
0.0493202
0.0493202
0.0493202
0.0493202
0.0493202
0.0493202
0.0493202
0.0493201
0.0493124
0.049763
0.0496145
0.0495334
0.0494922
0.0494723
0.049463
0.0494588
0.049457
0.0494563
0.0494563
0.049457
0.0494594
0.0495196
0.0497009
0.0499639
0.0499591
0.0499591
0.0499591
0.049959
0.0499591
0.0499032
0.0497217
0.049601
0.0495312
0.0494937
0.0494745
0.0494651
0.0494606
0.0494585
0.0494574
0.0494569
0.0494566
0.0494565
0.0494564
0.0494563
0.0494563
0.0494562
0.0494562
0.0494562
0.0494562
0.0494562
0.0494562
0.0494562
0.0494562
0.0494562
0.0494562
0.0494562
0.0494562
0.0494562
0.0494562
0.0494562
0.0494562
0.0494562
0.0494562
0.0494562
0.0494562
0.0494562
0.0494562
0.0494561
0.0494499
0.049806
0.0496845
0.0496182
0.0495845
0.0495683
0.0495608
0.0495574
0.0495559
0.0495554
0.0495553
0.0495558
0.0495609
0.0496928
0.0498711
0.0499712
0.0499656
0.0499667
0.0499667
0.0499654
0.0499667
0.0499212
0.0497723
0.0496734
0.0496163
0.0495857
0.04957
0.0495623
0.0495587
0.0495569
0.0495561
0.0495557
0.0495555
0.0495554
0.0495553
0.0495552
0.0495552
0.0495552
0.0495552
0.0495551
0.0495551
0.0495551
0.0495551
0.0495551
0.0495551
0.0495551
0.0495551
0.0495551
0.0495551
0.0495551
0.0495551
0.0495551
0.0495551
0.0495551
0.0495551
0.0495551
0.0495551
0.0495551
0.0495551
0.0495551
0.04955
0.0498383
0.0497371
0.0496818
0.0496538
0.0496403
0.0496341
0.0496313
0.0496301
0.0496297
0.0496297
0.0496301
0.0496339
0.0497708
0.0499052
0.0499731
0.0499742
0.0499732
0.0499772
0.0499738
0.0499723
0.0499396
0.0498096
0.0497267
0.0496793
0.0496541
0.0496414
0.0496351
0.0496322
0.0496308
0.0496301
0.0496298
0.0496296
0.0496295
0.0496295
0.0496294
0.0496294
0.0496294
0.0496294
0.0496294
0.0496294
0.0496294
0.0496294
0.0496294
0.0496294
0.0496294
0.0496294
0.0496294
0.0496294
0.0496294
0.0496294
0.0496294
0.0496294
0.0496294
0.0496294
0.0496294
0.0496294
0.0496294
0.0496294
0.0496293
0.0496251
0.0498632
0.0497775
0.0497308
0.0497072
0.0496958
0.0496905
0.0496881
0.0496871
0.0496868
0.0496868
0.049687
0.0496883
0.0497297
0.0498372
0.0499749
0.0499507
0.0499403
0.0499698
0.0499509
0.049941
0.0499421
0.0498348
0.0497661
0.049727
0.0497064
0.049696
0.049691
0.0496887
0.0496876
0.049687
0.0496868
0.0496867
0.0496866
0.0496865
0.0496865
0.0496865
0.0496865
0.0496865
0.0496865
0.0496865
0.0496865
0.0496865
0.0496865
0.0496865
0.0496865
0.0496865
0.0496865
0.0496865
0.0496865
0.0496865
0.0496865
0.0496865
0.0496865
0.0496865
0.0496865
0.0496865
0.0496865
0.0496865
0.0496864
0.0496829
0.0498827
0.0498093
0.0497693
0.049749
0.0497393
0.0497348
0.0497328
0.0497319
0.0497316
0.0497315
0.0497316
0.0497319
0.0497378
0.0498367
0.0499264
0.0499315
0.0498696
0.0498967
0.0499286
0.0499273
0.0499265
0.0498485
0.0497938
0.0497629
0.0497468
0.0497387
0.0497348
0.049733
0.0497321
0.0497318
0.0497316
0.0497315
0.0497314
0.0497314
0.0497314
0.0497314
0.0497313
0.0497313
0.0497313
0.0497313
0.0497313
0.0497313
0.0497313
0.0497313
0.0497313
0.0497313
0.0497313
0.0497313
0.0497313
0.0497313
0.0497313
0.0497313
0.0497313
0.0497313
0.0497313
0.0497313
0.0497313
0.0497313
0.0497313
0.0497282
0.0498983
0.0498347
0.0498001
0.0497826
0.0497741
0.0497702
0.0497685
0.0497677
0.0497674
0.0497673
0.0497672
0.0497673
0.0497678
0.0497856
0.0497978
0.0498024
0.0497948
0.0497997
0.0498028
0.0498043
0.0498046
0.0497933
0.0497835
0.0497766
0.0497723
0.0497699
0.0497686
0.049768
0.0497676
0.0497674
0.0497674
0.0497673
0.0497673
0.0497673
0.0497672
0.0497672
0.0497672
0.0497672
0.0497672
0.0497672
0.0497672
0.0497672
0.0497672
0.0497672
0.0497672
0.0497672
0.0497672
0.0497672
0.0497672
0.0497672
0.0497672
0.0497672
0.0497672
0.0497672
0.0497672
0.0497672
0.0497672
0.0497672
0.0497672
0.0497645
0.049911
0.0498554
0.0498251
0.0498097
0.0498024
0.049799
0.0497974
0.0497968
0.0497965
0.0497963
0.0497963
0.0497962
0.0497962
0.0497975
0.0497991
0.0498002
0.0498001
0.0498004
0.0498007
0.0498009
0.049801
0.0498002
0.0497992
0.0497982
0.0497975
0.0497971
0.0497968
0.0497966
0.0497965
0.0497964
0.0497964
0.0497964
0.0497964
0.0497963
0.0497963
0.0497963
0.0497963
0.0497963
0.0497963
0.0497963
0.0497963
0.0497963
0.0497963
0.0497963
0.0497963
0.0497963
0.0497963
0.0497963
0.0497963
0.0497963
0.0497963
0.0497963
0.0497963
0.0497963
0.0497963
0.0497963
0.0497963
0.0497963
0.0497963
0.049794
0.0499212
0.0498717
0.0498446
0.0498308
0.0498242
0.0498211
0.0498197
0.0498191
0.0498188
0.0498187
0.0498186
0.0498185
0.0498184
0.0498185
0.0498188
0.049819
0.0498192
0.0498192
0.0498193
0.0498193
0.0498192
0.0498192
0.0498191
0.049819
0.0498189
0.0498189
0.0498188
0.0498188
0.0498187
0.0498187
0.0498187
0.0498187
0.0498187
0.0498187
0.0498187
0.0498187
0.0498187
0.0498187
0.0498187
0.0498187
0.0498187
0.0498187
0.0498187
0.0498187
0.0498187
0.0498187
0.0498187
0.0498187
0.0498187
0.0498187
0.0498187
0.0498187
0.0498187
0.0498187
0.0498187
0.0498187
0.0498187
0.0498187
0.0498186
0.0498166
0.049926
0.0498764
0.0498472
0.0498313
0.0498231
0.049819
0.0498171
0.0498161
0.0498157
0.0498155
0.0498154
0.0498154
0.0498153
0.0498153
0.0498154
0.0498161
0.0498165
0.0498167
0.0498168
0.0498163
0.0498159
0.0498157
0.0498156
0.0498155
0.0498155
0.0498155
0.0498155
0.0498155
0.0498155
0.0498154
0.0498154
0.0498154
0.0498154
0.0498154
0.0498154
0.0498154
0.0498154
0.0498154
0.0498154
0.0498154
0.0498154
0.0498154
0.0498154
0.0498154
0.0498154
0.0498154
0.0498154
0.0498154
0.0498154
0.0498154
0.0498154
0.0498154
0.0498154
0.0498154
0.0498154
0.0498154
0.0498154
0.0498154
0.0498154
0.0498132
0.0259604
0.0189741
0.0169948
0.0164568
0.0163148
0.0162774
0.0162663
0.0162609
0.016257
0.0162522
0.0162459
0.0162369
0.016224
0.0162065
0.016185
0.0161618
0.0161425
0.0161303
0.0161286
0.0161373
0.016153
0.0161739
0.0161957
0.016215
0.0162315
0.0162434
0.0162526
0.0162591
0.0162636
0.0162666
0.0162685
0.0162696
0.0162703
0.0162708
0.016271
0.0162712
0.0162714
0.0162711
0.0162712
0.0162711
0.0162712
0.0162712
0.0162712
0.0162712
0.0162712
0.0162712
0.0162712
0.0162712
0.0162712
0.0162712
0.0162712
0.0162712
0.0162712
0.0162712
0.0162712
0.0162712
0.0162712
0.0162712
0.0162707
0.0161928
0.0421979
0.0381767
0.036358
0.0355877
0.0352771
0.0351558
0.0351079
0.0350877
0.0350766
0.0350679
0.0350579
0.0350442
0.0350249
0.0349995
0.0349682
0.0349384
0.0349162
0.0349038
0.0349023
0.0349139
0.0349351
0.0349644
0.0349947
0.0350222
0.0350444
0.0350611
0.0350731
0.0350814
0.0350874
0.035091
0.0350932
0.0350946
0.0350951
0.0350956
0.0350959
0.0350959
0.0350961
0.0350959
0.035096
0.0350959
0.0350958
0.0350958
0.0350958
0.0350958
0.0350958
0.0350958
0.0350958
0.0350958
0.0350958
0.0350958
0.0350958
0.0350958
0.0350958
0.0350958
0.0350958
0.0350958
0.0350958
0.0350958
0.0350948
0.034989
0.0467572
0.0448474
0.043872
0.0434108
0.0432041
0.0431149
0.0430767
0.0430596
0.0430511
0.0430454
0.0430399
0.0430325
0.0430215
0.0430094
0.0429924
0.0429748
0.0429622
0.0429549
0.0429538
0.0429631
0.0429771
0.0429931
0.0430102
0.0430255
0.0430377
0.0430465
0.0430524
0.0430563
0.0430588
0.0430603
0.043061
0.0430614
0.0430615
0.0430614
0.0430614
0.0430614
0.0430614
0.0430613
0.0430612
0.0430612
0.0430612
0.0430611
0.0430611
0.0430611
0.0430611
0.0430611
0.0430611
0.0430611
0.0430611
0.0430611
0.0430611
0.0430611
0.0430611
0.0430611
0.0430611
0.0430611
0.0430611
0.0430611
0.0430604
0.042993
0.0483144
0.0472965
0.0467615
0.0465002
0.046379
0.0463247
0.0463007
0.0462899
0.0462848
0.0462822
0.0462813
0.0462801
0.0462778
0.0463974
0.0464608
0.0464831
0.0464929
0.0464931
0.0464936
0.0464998
0.0465066
0.0464002
0.0463386
0.046309
0.0462966
0.0462921
0.0462907
0.0462904
0.0462903
0.0462902
0.0462901
0.0462899
0.0462898
0.0462895
0.0462894
0.0462893
0.0462892
0.0462891
0.0462891
0.046289
0.046289
0.046289
0.046289
0.046289
0.046289
0.046289
0.046289
0.046289
0.0462889
0.0462889
0.0462889
0.0462889
0.0462889
0.0462889
0.0462889
0.0462889
0.0462889
0.0462889
0.0462886
0.0462489
0.0489774
0.0483585
0.0480323
0.0478722
0.0477975
0.0477636
0.0477486
0.0477419
0.0477391
0.0477392
0.0477422
0.0477516
0.0478553
0.0485191
0.0490724
0.0491152
0.0491252
0.0491482
0.0491279
0.0491302
0.0491359
0.0486116
0.0481539
0.047927
0.0478224
0.0477764
0.0477567
0.0477485
0.0477449
0.0477432
0.0477423
0.0477418
0.0477415
0.0477412
0.0477411
0.047741
0.0477409
0.0477408
0.0477407
0.0477407
0.0477407
0.0477407
0.0477407
0.0477407
0.0477407
0.0477407
0.0477407
0.0477407
0.0477407
0.0477407
0.0477407
0.0477407
0.0477407
0.0477407
0.0477407
0.0477407
0.0477407
0.0477407
0.0477404
0.0477156
0.0493148
0.0489005
0.0486824
0.0485755
0.0485256
0.048503
0.048493
0.0484886
0.048487
0.0484878
0.0484917
0.048513
0.0490206
0.0495785
0.0498433
0.0496992
0.0496348
0.0498001
0.049698
0.0496438
0.0497055
0.0491858
0.0488387
0.0486552
0.0485654
0.0485235
0.0485045
0.0484959
0.048492
0.0484902
0.0484892
0.0484887
0.0484883
0.0484881
0.0484879
0.0484878
0.0484878
0.0484877
0.0484877
0.0484877
0.0484876
0.0484876
0.0484876
0.0484876
0.0484876
0.0484876
0.0484876
0.0484876
0.0484876
0.0484876
0.0484876
0.0484876
0.0484876
0.0484876
0.0484876
0.0484876
0.0484876
0.0484876
0.0484874
0.0484707
0.0495093
0.0492128
0.0490569
0.0489806
0.0489451
0.048929
0.0489219
0.0489188
0.0489177
0.048918
0.04892
0.0489335
0.0493919
0.0498744
0.0499801
0.0499781
0.0499709
0.0499729
0.0499758
0.049971
0.0499213
0.0494336
0.0491803
0.0490452
0.0489782
0.0489465
0.0489318
0.048925
0.0489218
0.0489202
0.0489194
0.0489189
0.0489186
0.0489185
0.0489183
0.0489183
0.0489182
0.0489182
0.0489181
0.0489181
0.0489181
0.0489181
0.0489181
0.0489181
0.0489181
0.0489181
0.0489181
0.0489181
0.0489181
0.0489181
0.0489181
0.0489181
0.0489181
0.0489181
0.0489181
0.0489181
0.0489181
0.0489181
0.0489179
0.0489059
0.0496314
0.0494088
0.0492919
0.0492348
0.0492082
0.0491962
0.0491909
0.0491886
0.0491876
0.0491876
0.0491883
0.0491964
0.0495414
0.0499046
0.0499688
0.0499616
0.0499369
0.0499584
0.0499607
0.0499361
0.0499322
0.0495762
0.0493874
0.0492855
0.0492346
0.0492103
0.0491989
0.0491936
0.0491911
0.0491898
0.0491891
0.0491888
0.0491885
0.0491884
0.0491883
0.0491882
0.0491882
0.0491881
0.0491881
0.0491881
0.0491881
0.0491881
0.0491881
0.0491881
0.0491881
0.0491881
0.0491881
0.0491881
0.0491881
0.0491881
0.0491881
0.0491881
0.0491881
0.0491881
0.0491881
0.0491881
0.0491881
0.0491881
0.049188
0.0491789
0.049713
0.0495399
0.049449
0.0494046
0.049384
0.0493747
0.0493706
0.0493688
0.049368
0.0493679
0.0493683
0.0493742
0.0495965
0.0498998
0.0499662
0.0499573
0.0499515
0.0499547
0.0499567
0.049951
0.0499478
0.0496709
0.0495247
0.0494453
0.0494054
0.0493862
0.0493771
0.0493728
0.0493708
0.0493698
0.0493692
0.0493689
0.0493687
0.0493686
0.0493686
0.0493685
0.0493684
0.0493684
0.0493684
0.0493684
0.0493684
0.0493684
0.0493684
0.0493684
0.0493684
0.0493684
0.0493684
0.0493684
0.0493684
0.0493684
0.0493684
0.0493684
0.0493684
0.0493684
0.0493684
0.0493684
0.0493684
0.0493684
0.0493683
0.0493613
0.0497703
0.0496317
0.0495591
0.0495237
0.0495072
0.0494998
0.0494966
0.0494952
0.0494945
0.0494944
0.0494948
0.0494997
0.0496727
0.0499142
0.049971
0.0499619
0.0499614
0.0499615
0.0499615
0.049961
0.0499583
0.0497371
0.0496202
0.0495567
0.0495247
0.0495091
0.0495017
0.0494983
0.0494966
0.0494958
0.0494954
0.0494951
0.049495
0.0494949
0.0494949
0.0494948
0.0494948
0.0494948
0.0494948
0.0494947
0.0494947
0.0494947
0.0494947
0.0494947
0.0494947
0.0494947
0.0494947
0.0494947
0.0494947
0.0494947
0.0494947
0.0494947
0.0494947
0.0494947
0.0494947
0.0494947
0.0494947
0.0494947
0.0494947
0.049489
0.049812
0.0496986
0.0496393
0.0496103
0.0495969
0.0495909
0.0495882
0.0495871
0.0495867
0.0495866
0.0495869
0.0495915
0.0497661
0.0499498
0.0499803
0.0499749
0.0499688
0.0499723
0.0499748
0.0499683
0.0499662
0.0497843
0.0496886
0.0496369
0.0496109
0.0495983
0.0495923
0.0495895
0.0495881
0.0495875
0.0495872
0.049587
0.0495869
0.0495868
0.0495868
0.0495867
0.0495867
0.0495867
0.0495867
0.0495867
0.0495867
0.0495867
0.0495867
0.0495867
0.0495867
0.0495867
0.0495867
0.0495867
0.0495867
0.0495867
0.0495867
0.0495867
0.0495867
0.0495867
0.0495867
0.0495867
0.0495867
0.0495867
0.0495866
0.049582
0.0498433
0.0497488
0.0496994
0.0496753
0.0496642
0.0496592
0.049657
0.0496561
0.0496558
0.0496558
0.0496563
0.0496605
0.0498098
0.0499624
0.0499964
0.0499842
0.0499743
0.0499863
0.0499837
0.0499737
0.0499762
0.0498175
0.0497385
0.0496962
0.0496751
0.0496649
0.0496601
0.0496578
0.0496568
0.0496563
0.049656
0.0496559
0.0496558
0.0496557
0.0496557
0.0496557
0.0496557
0.0496557
0.0496556
0.0496556
0.0496556
0.0496556
0.0496556
0.0496556
0.0496556
0.0496556
0.0496556
0.0496556
0.0496556
0.0496556
0.0496556
0.0496556
0.0496556
0.0496556
0.0496556
0.0496556
0.0496556
0.0496556
0.0496556
0.0496517
0.0498674
0.0497875
0.0497457
0.0497253
0.0497159
0.0497117
0.0497099
0.0497091
0.0497089
0.0497089
0.0497091
0.0497117
0.0498167
0.0499542
0.0499939
0.049982
0.0499784
0.0499804
0.0499819
0.0499787
0.0499863
0.0498454
0.0497783
0.0497425
0.0497247
0.0497162
0.0497122
0.0497104
0.0497096
0.0497092
0.049709
0.0497089
0.0497088
0.0497088
0.0497087
0.0497087
0.0497087
0.0497087
0.0497087
0.0497087
0.0497087
0.0497087
0.0497087
0.0497087
0.0497087
0.0497087
0.0497087
0.0497087
0.0497087
0.0497087
0.0497087
0.0497087
0.0497087
0.0497087
0.0497087
0.0497087
0.0497087
0.0497087
0.0497087
0.0497054
0.0498863
0.0498179
0.049782
0.0497646
0.0497566
0.049753
0.0497514
0.0497508
0.0497505
0.0497504
0.0497504
0.0497506
0.0497707
0.0498679
0.0499409
0.0499391
0.0499283
0.0499376
0.0499388
0.0499369
0.0499417
0.0498572
0.0498051
0.049777
0.0497629
0.0497562
0.0497531
0.0497517
0.049751
0.0497507
0.0497506
0.0497505
0.0497504
0.0497504
0.0497504
0.0497504
0.0497504
0.0497504
0.0497504
0.0497504
0.0497504
0.0497504
0.0497504
0.0497504
0.0497504
0.0497504
0.0497504
0.0497504
0.0497504
0.0497504
0.0497504
0.0497504
0.0497504
0.0497504
0.0497504
0.0497504
0.0497504
0.0497504
0.0497503
0.0497475
0.0499015
0.0498422
0.0498111
0.049796
0.0497891
0.049786
0.0497846
0.049784
0.0497838
0.0497837
0.0497836
0.0497835
0.0497848
0.0498
0.0498101
0.0498146
0.0498151
0.0498159
0.0498164
0.0498168
0.0498166
0.0498061
0.0497972
0.0497913
0.0497878
0.0497858
0.0497848
0.0497843
0.049784
0.0497839
0.0497838
0.0497838
0.0497838
0.0497837
0.0497837
0.0497837
0.0497837
0.0497837
0.0497837
0.0497837
0.0497837
0.0497837
0.0497837
0.0497837
0.0497837
0.0497837
0.0497837
0.0497837
0.0497837
0.0497837
0.0497837
0.0497837
0.0497837
0.0497837
0.0497837
0.0497837
0.0497837
0.0497837
0.0497837
0.0497813
0.0499138
0.0498619
0.0498347
0.0498216
0.0498155
0.0498127
0.0498116
0.0498111
0.0498108
0.0498107
0.0498106
0.0498105
0.0498106
0.0498116
0.0498136
0.0498149
0.0498153
0.0498155
0.0498156
0.0498151
0.0498147
0.0498139
0.049813
0.0498123
0.0498117
0.0498113
0.0498111
0.049811
0.0498109
0.0498109
0.0498108
0.0498108
0.0498108
0.0498108
0.0498108
0.0498108
0.0498108
0.0498108
0.0498108
0.0498108
0.0498108
0.0498108
0.0498108
0.0498108
0.0498108
0.0498108
0.0498108
0.0498108
0.0498108
0.0498108
0.0498108
0.0498108
0.0498108
0.0498108
0.0498108
0.0498108
0.0498108
0.0498108
0.0498107
0.0498086
0.0499237
0.0498775
0.0498533
0.0498415
0.049836
0.0498335
0.0498324
0.049832
0.0498318
0.0498317
0.0498316
0.0498315
0.0498316
0.0498316
0.0498324
0.0498329
0.0498331
0.0498332
0.0498333
0.0498328
0.0498324
0.0498322
0.0498321
0.049832
0.0498319
0.0498319
0.0498318
0.0498318
0.0498318
0.0498318
0.0498317
0.0498317
0.0498317
0.0498317
0.0498317
0.0498317
0.0498317
0.0498317
0.0498317
0.0498317
0.0498317
0.0498317
0.0498317
0.0498317
0.0498317
0.0498317
0.0498317
0.0498317
0.0498317
0.0498317
0.0498317
0.0498317
0.0498317
0.0498317
0.0498317
0.0498317
0.0498317
0.0498317
0.0498317
0.0498298
0.0499283
0.049882
0.049856
0.0498424
0.0498356
0.0498324
0.0498309
0.0498302
0.0498299
0.0498297
0.0498297
0.0498296
0.0498297
0.0498298
0.0498303
0.0498307
0.0498309
0.049831
0.049831
0.0498306
0.0498301
0.0498299
0.0498298
0.0498298
0.0498298
0.0498298
0.0498297
0.0498297
0.0498297
0.0498297
0.0498297
0.0498297
0.0498297
0.0498297
0.0498297
0.0498297
0.0498297
0.0498297
0.0498297
0.0498297
0.0498297
0.0498297
0.0498297
0.0498297
0.0498297
0.0498297
0.0498297
0.0498297
0.0498297
0.0498297
0.0498297
0.0498297
0.0498297
0.0498297
0.0498297
0.0498297
0.0498297
0.0498297
0.0498297
0.0498277
0.0259661
0.0189885
0.0170154
0.0164805
0.01634
0.0163031
0.0162924
0.0162874
0.0162841
0.0162801
0.0162748
0.0162671
0.0162558
0.0162401
0.0162198
0.0161977
0.0161789
0.016167
0.0161649
0.0161719
0.0161857
0.0162048
0.0162249
0.0162433
0.0162589
0.0162703
0.016279
0.0162852
0.0162894
0.0162924
0.0162942
0.0162952
0.0162959
0.0162965
0.0162967
0.0162967
0.0162969
0.0162968
0.0162969
0.0162967
0.0162969
0.0162968
0.0162968
0.0162968
0.0162968
0.0162968
0.0162968
0.0162968
0.0162968
0.0162968
0.0162968
0.0162968
0.0162968
0.0162968
0.0162968
0.0162968
0.0162968
0.0162968
0.0162963
0.0162186
0.0422119
0.0382113
0.0364122
0.0356552
0.0353525
0.0352356
0.0351901
0.0351711
0.0351611
0.0351534
0.0351449
0.035133
0.0351158
0.0350921
0.0350626
0.0350341
0.0350125
0.0349998
0.0349973
0.0350058
0.0350239
0.0350509
0.03508
0.0351064
0.035128
0.0351442
0.0351561
0.0351645
0.0351701
0.035174
0.0351761
0.0351775
0.0351781
0.0351785
0.0351788
0.0351788
0.035179
0.0351788
0.035179
0.0351788
0.0351788
0.0351788
0.0351788
0.0351788
0.0351788
0.0351788
0.0351788
0.0351788
0.0351788
0.0351788
0.0351788
0.0351788
0.0351788
0.0351788
0.0351788
0.0351788
0.0351788
0.0351788
0.0351778
0.0350729
0.0467666
0.0448721
0.0439115
0.0434614
0.043262
0.0431768
0.0431409
0.043125
0.0431172
0.0431123
0.0431078
0.0431015
0.0430914
0.0430797
0.0430637
0.0430469
0.0430344
0.0430269
0.0430246
0.0430298
0.0430407
0.0430558
0.0430733
0.043089
0.0431016
0.043111
0.0431174
0.0431217
0.0431242
0.0431259
0.0431267
0.0431271
0.0431273
0.0431272
0.0431272
0.0431272
0.0431272
0.0431271
0.0431271
0.0431271
0.043127
0.043127
0.043127
0.0431269
0.0431269
0.0431269
0.0431269
0.0431269
0.0431269
0.0431269
0.0431269
0.0431269
0.0431269
0.0431269
0.0431269
0.0431269
0.0431269
0.0431269
0.0431263
0.0430598
0.04832
0.0473114
0.0467857
0.0465317
0.0464152
0.0463637
0.0463412
0.0463313
0.0463267
0.0463258
0.0463272
0.0463284
0.0463259
0.0464377
0.0465023
0.0465205
0.0465282
0.0465283
0.0465268
0.046528
0.0465328
0.0464291
0.0463713
0.0463446
0.0463345
0.0463317
0.0463314
0.0463316
0.0463319
0.046332
0.0463319
0.0463318
0.0463317
0.0463315
0.0463313
0.0463313
0.0463312
0.0463311
0.0463311
0.046331
0.046331
0.046331
0.046331
0.046331
0.046331
0.0463309
0.0463309
0.0463309
0.0463309
0.0463309
0.0463309
0.0463309
0.0463309
0.0463309
0.0463309
0.0463309
0.0463309
0.0463309
0.0463306
0.0462916
0.0489809
0.0483679
0.0480476
0.0478921
0.0478204
0.0477885
0.0477744
0.0477682
0.0477661
0.0477671
0.0477722
0.0477873
0.0478885
0.0485355
0.0490987
0.0491114
0.0491159
0.0491255
0.049119
0.0491209
0.0491287
0.0486179
0.0481649
0.047943
0.0478426
0.0477995
0.0477816
0.0477743
0.0477712
0.0477697
0.047769
0.0477686
0.0477683
0.0477681
0.0477679
0.0477678
0.0477677
0.0477676
0.0477676
0.0477676
0.0477675
0.0477675
0.0477675
0.0477675
0.0477675
0.0477675
0.0477675
0.0477675
0.0477675
0.0477675
0.0477675
0.0477675
0.0477675
0.0477675
0.0477675
0.0477675
0.0477675
0.0477675
0.0477673
0.047743
0.0493172
0.0489069
0.0486928
0.048589
0.0485412
0.0485198
0.0485104
0.0485063
0.0485052
0.0485065
0.0485122
0.0485402
0.049044
0.0495758
0.0498477
0.0496976
0.0496323
0.0497898
0.0496963
0.0496432
0.0498447
0.0491867
0.0488417
0.0486627
0.048577
0.048538
0.0485207
0.0485132
0.0485097
0.0485081
0.0485073
0.0485068
0.0485065
0.0485063
0.0485061
0.048506
0.0485059
0.0485059
0.0485058
0.0485058
0.0485058
0.0485058
0.0485058
0.0485058
0.0485058
0.0485058
0.0485058
0.0485058
0.0485058
0.0485058
0.0485058
0.0485058
0.0485058
0.0485058
0.0485058
0.0485058
0.0485058
0.0485058
0.0485056
0.0484892
0.0495109
0.0492174
0.0490644
0.0489903
0.0489562
0.0489411
0.0489344
0.0489314
0.0489304
0.0489307
0.0489329
0.0489474
0.0494033
0.0498949
0.049947
0.0499278
0.0499107
0.0499199
0.0499278
0.049911
0.0499881
0.0494237
0.0491765
0.0490474
0.0489851
0.0489562
0.0489432
0.0489372
0.0489345
0.0489331
0.0489324
0.0489319
0.0489317
0.0489315
0.0489314
0.0489313
0.0489312
0.0489312
0.0489311
0.0489311
0.0489311
0.0489311
0.0489311
0.0489311
0.0489311
0.0489311
0.0489311
0.0489311
0.0489311
0.0489311
0.0489311
0.0489311
0.0489311
0.0489311
0.0489311
0.0489311
0.0489311
0.0489311
0.048931
0.0489192
0.0496326
0.0494122
0.0492975
0.0492421
0.0492166
0.0492053
0.0492003
0.049198
0.0491969
0.0491965
0.0491962
0.0492009
0.0495442
0.049912
0.0498211
0.0498005
0.049805
0.0498074
0.0498016
0.0498126
0.0499349
0.049572
0.0493854
0.0492873
0.0492397
0.0492176
0.0492074
0.0492028
0.0492006
0.0491995
0.0491989
0.0491985
0.0491983
0.0491981
0.0491981
0.049198
0.0491979
0.0491979
0.0491979
0.0491979
0.0491979
0.0491979
0.0491979
0.0491979
0.0491979
0.0491979
0.0491978
0.0491978
0.0491978
0.0491978
0.0491978
0.0491978
0.0491978
0.0491978
0.0491978
0.0491978
0.0491978
0.0491978
0.0491978
0.0491889
0.049714
0.0495425
0.0494534
0.0494103
0.0493905
0.0493818
0.0493779
0.0493761
0.0493752
0.0493745
0.0493737
0.0493764
0.0496421
0.049923
0.049867
0.0498488
0.0498495
0.0498478
0.0498458
0.0498565
0.0499498
0.0496684
0.0495234
0.0494468
0.0494093
0.0493918
0.0493837
0.04938
0.0493782
0.0493773
0.0493768
0.0493765
0.0493763
0.0493762
0.0493762
0.0493761
0.0493761
0.049376
0.049376
0.049376
0.049376
0.049376
0.049376
0.049376
0.049376
0.049376
0.049376
0.049376
0.049376
0.049376
0.049376
0.049376
0.049376
0.049376
0.049376
0.049376
0.049376
0.049376
0.0493759
0.049369
0.049771
0.0496339
0.0495626
0.0495282
0.0495124
0.0495054
0.0495024
0.049501
0.0495002
0.0494997
0.0494991
0.0495019
0.0497142
0.0499377
0.0498964
0.0498819
0.0498811
0.0498801
0.0498788
0.049886
0.0499601
0.0497349
0.049619
0.0495578
0.0495277
0.0495136
0.0495071
0.049504
0.0495026
0.0495018
0.0495015
0.0495012
0.0495011
0.049501
0.0495009
0.0495009
0.0495009
0.0495009
0.0495008
0.0495008
0.0495008
0.0495008
0.0495008
0.0495008
0.0495008
0.0495008
0.0495008
0.0495008
0.0495008
0.0495008
0.0495008
0.0495008
0.0495008
0.0495008
0.0495008
0.0495008
0.0495008
0.0495008
0.0495008
0.0494952
0.0498126
0.0497004
0.0496421
0.049614
0.0496012
0.0495955
0.049593
0.0495919
0.0495914
0.0495911
0.0495909
0.0495937
0.0497694
0.0499495
0.0499113
0.0499007
0.0499037
0.049901
0.0499001
0.0499075
0.0499676
0.049782
0.0496874
0.0496377
0.0496134
0.0496019
0.0495966
0.0495942
0.049593
0.0495924
0.0495921
0.049592
0.0495918
0.0495918
0.0495917
0.0495917
0.0495917
0.0495917
0.0495917
0.0495917
0.0495916
0.0495916
0.0495916
0.0495916
0.0495916
0.0495916
0.0495916
0.0495916
0.0495916
0.0495916
0.0495916
0.0495916
0.0495916
0.0495916
0.0495916
0.0495916
0.0495916
0.0495916
0.0495916
0.0495871
0.0498438
0.0497503
0.0497018
0.0496784
0.0496677
0.049663
0.049661
0.0496601
0.0496598
0.0496597
0.0496601
0.0496641
0.0498114
0.0499626
0.0499643
0.0499352
0.0499277
0.0499537
0.049935
0.0499286
0.0499891
0.0498149
0.0497374
0.0496969
0.0496772
0.0496679
0.0496637
0.0496617
0.0496608
0.0496604
0.0496601
0.04966
0.0496599
0.0496599
0.0496599
0.0496598
0.0496598
0.0496598
0.0496598
0.0496598
0.0496598
0.0496598
0.0496598
0.0496598
0.0496598
0.0496598
0.0496598
0.0496598
0.0496598
0.0496598
0.0496598
0.0496598
0.0496598
0.0496598
0.0496598
0.0496598
0.0496598
0.0496598
0.0496597
0.049656
0.0498678
0.0497887
0.0497477
0.0497279
0.0497189
0.0497149
0.0497132
0.0497125
0.0497122
0.0497122
0.0497122
0.0497145
0.0498393
0.049966
0.0499966
0.0499818
0.0499771
0.0499799
0.0499817
0.0499773
0.0499951
0.0498455
0.049779
0.0497441
0.049727
0.049719
0.0497154
0.0497138
0.049713
0.0497126
0.0497125
0.0497124
0.0497123
0.0497123
0.0497122
0.0497122
0.0497122
0.0497122
0.0497122
0.0497122
0.0497122
0.0497122
0.0497122
0.0497122
0.0497122
0.0497122
0.0497122
0.0497122
0.0497122
0.0497122
0.0497122
0.0497122
0.0497122
0.0497122
0.0497122
0.0497122
0.0497122
0.0497122
0.0497122
0.049709
0.0498867
0.0498189
0.0497838
0.0497669
0.0497591
0.0497557
0.0497543
0.0497537
0.0497534
0.0497533
0.0497531
0.0497529
0.0497738
0.0498681
0.0499392
0.0499377
0.0499344
0.0499383
0.0499368