/*--------------------------------*- C++ -*----------------------------------*\
  =========                 |
  \\      /  F ield         | OpenFOAM: The Open Source CFD Toolbox
   \\    /   O peration     | Website:  https://openfoam.org
    \\  /    A nd           | Version:  13
     \\/     M anipulation  |
\*---------------------------------------------------------------------------*/
FoamFile
{
    format      ascii;
    class       volScalarField;
    location    "3";
    object      p;
}
// * * * * * * * * * * * * * * * * * * * * * * * * * * * * * * * * * * * * * //

dimensions      [0 2 -2 0 0 0 0];

internalField   nonuniform List<scalar> 
54636
(
-1.24778e-14
-2.30205e-14
-2.19757e-14
-5.28246e-15
3.00277e-15
-4.64706e-14
-1.91532e-14
-3.89244e-15
-4.62609e-14
-3.83071e-14
-2.12573e-14
-1.36595e-14
6.74296e-15
-5.25021e-15
-1.68734e-14
-9.99529e-16
-1.92494e-14
2.91506e-14
3.01417e-14
6.32113e-15
-8.3583e-15
-3.16596e-15
-1.35936e-14
1.22932e-14
5.01759e-14
1.60426e-14
5.91149e-15
-2.84911e-15
-1.81573e-14
-2.32093e-14
9.84366e-15
1.05371e-14
3.14714e-14
1.172e-15
2.5467e-14
-4.27488e-15
-1.2049e-14
-1.31261e-14
-2.58459e-14
-2.82612e-15
1.93738e-14
5.52343e-15
3.0135e-15
1.76926e-15
5.13608e-15
2.49775e-14
2.56682e-14
2.5901e-14
1.02029e-14
1.60298e-14
1.21537e-14
2.04137e-15
-6.96407e-15
1.32452e-14
2.69701e-14
4.49178e-15
1.14799e-14
1.26818e-14
2.40313e-14
2.55382e-14
-9.23338e-15
-2.42181e-14
-1.69724e-14
-8.38944e-15
8.7386e-15
-4.05636e-14
-2.97752e-14
-6.60965e-15
-5.44429e-14
-3.20131e-14
-2.03885e-14
-1.12302e-14
-1.07848e-14
-1.20473e-15
-8.1147e-15
4.16906e-15
-7.54615e-15
2.46212e-14
2.84918e-14
1.02543e-14
-3.44246e-15
-9.66797e-15
-7.23797e-15
4.66521e-15
5.08398e-14
5.69157e-15
-4.36457e-15
4.44618e-15
-7.51908e-15
-3.10908e-14
1.61247e-14
2.02319e-14
3.66261e-14
4.48882e-15
1.90812e-14
-9.42437e-16
-2.53305e-14
4.47605e-15
-2.87243e-14
-8.56441e-15
2.10721e-14
2.33841e-15
-3.14003e-15
6.83709e-15
9.10332e-15
2.15843e-14
2.6442e-14
2.55443e-14
-4.42787e-16
2.22718e-14
1.49093e-14
9.93849e-15
-5.6803e-15
1.05393e-14
6.87816e-15
1.02353e-14
2.0085e-14
2.12215e-14
1.93715e-14
1.30525e-14
-5.4061e-16
-1.73716e-14
-2.28996e-14
-1.74604e-14
1.66286e-14
-3.30202e-14
-2.31559e-14
-8.94556e-15
-5.86238e-14
-2.87336e-14
-9.89336e-15
-1.90139e-14
-2.19808e-14
8.69293e-16
-1.1537e-15
1.10405e-14
-8.1943e-15
2.20705e-14
3.11061e-14
2.13471e-14
-2.22796e-14
-8.71553e-15
4.39486e-15
-6.94298e-15
3.92829e-14
1.24782e-14
-4.43339e-16
-1.57015e-15
-4.6983e-15
-2.86478e-14
1.16887e-14
2.88969e-14
1.63176e-14
1.74358e-15
8.80256e-15
-1.56266e-15
-2.93142e-14
2.03369e-14
-1.73219e-14
-8.89253e-15
2.24302e-14
8.69725e-15
-1.70013e-14
1.30189e-14
2.14879e-14
1.89832e-14
2.39864e-14
2.26479e-14
2.18018e-15
1.20011e-14
1.78492e-14
5.48684e-15
-3.38421e-15
5.47855e-15
7.62207e-15
1.33941e-14
2.04887e-14
2.23429e-14
1.82735e-14
5.81383e-15
-1.08382e-15
-2.01553e-14
-3.70155e-14
-1.06866e-14
1.08503e-14
-3.27936e-14
-1.16785e-14
-2.70727e-14
-5.22586e-14
-1.21167e-14
-1.07727e-14
-1.77878e-14
-3.62581e-14
1.45317e-14
1.65031e-15
1.65064e-14
-4.10495e-15
1.1898e-14
2.4514e-14
1.93227e-14
-2.30748e-14
-8.15753e-15
1.91907e-15
-4.32936e-15
2.65565e-14
1.12925e-14
1.59962e-15
4.55469e-15
1.05554e-14
-3.41731e-14
2.03901e-14
1.81703e-14
6.21122e-15
3.55973e-15
4.64984e-15
-6.18159e-15
-2.09919e-14
1.18614e-14
-1.03191e-14
-8.87864e-15
2.73954e-14
7.77253e-15
-1.88784e-14
1.33758e-14
3.31693e-14
1.33492e-14
2.24129e-14
2.36119e-14
3.80939e-15
2.43264e-15
8.50512e-15
1.30744e-14
2.84169e-15
-2.18535e-16
9.53642e-15
1.44967e-14
1.98423e-14
2.48398e-14
1.42652e-14
1.28663e-14
2.50527e-14
-3.10374e-14
-4.38558e-14
-2.16908e-14
1.07131e-14
-3.04547e-14
-1.07625e-14
-2.4003e-14
-5.23829e-14
-1.91922e-14
-1.26525e-14
-1.59334e-14
-3.5787e-14
-5.07263e-15
2.11549e-14
1.59145e-14
-1.50631e-14
1.73297e-14
2.49312e-14
1.88363e-14
7.22295e-16
1.68707e-15
1.20287e-15
-8.94079e-15
2.66995e-14
1.69208e-15
3.10593e-15
1.44571e-14
2.4782e-15
-2.42983e-14
1.12776e-14
2.9628e-14
2.13998e-15
-5.84692e-15
-6.69488e-15
-1.55491e-14
-1.33823e-14
2.33046e-14
-1.0196e-14
7.28425e-15
1.66423e-14
1.15722e-14
-1.12163e-14
1.02797e-14
2.40401e-14
7.69458e-15
2.30794e-14
1.04035e-14
1.01873e-14
5.33759e-15
7.02458e-17
1.70455e-14
1.21588e-14
-5.22607e-17
7.9929e-15
1.10683e-14
2.12595e-14
1.87295e-14
2.34922e-14
1.34622e-14
2.55645e-14
-2.32072e-14
-3.99326e-14
-2.64078e-14
8.79016e-15
-3.22271e-14
-3.13476e-14
-1.752e-14
-3.86891e-14
-5.90552e-15
-1.58716e-14
-2.92937e-15
-2.89206e-14
-2.18436e-14
2.82817e-14
2.35027e-14
9.99521e-15
-1.78666e-15
4.79824e-14
-8.55229e-15
2.70414e-14
1.14886e-14
-2.78334e-15
-1.56382e-14
5.88598e-15
1.41165e-14
-7.50523e-15
3.42962e-14
5.8517e-15
-1.96239e-14
6.24411e-15
3.32839e-14
-3.51372e-15
-1.80321e-14
-7.51619e-15
-1.5477e-14
6.22579e-15
1.0285e-14
-2.05867e-14
2.92521e-15
1.54951e-14
2.4342e-14
-3.7938e-16
3.76072e-15
1.90939e-14
9.21702e-16
2.1879e-14
1.38976e-14
1.67715e-14
1.03588e-14
-4.51558e-15
1.64653e-15
1.38324e-14
1.48468e-16
5.39178e-15
1.86849e-14
2.77915e-14
1.29832e-14
1.92536e-14
6.5614e-15
2.055e-14
-2.42041e-14
-3.62121e-14
-3.47981e-14
1.04861e-15
-1.65421e-14
-4.14309e-14
-2.39604e-14
-3.63929e-14
-1.34002e-14
-5.38751e-15
-8.79262e-16
-4.43874e-15
-2.79996e-14
7.19418e-14
1.50307e-14
2.34635e-14
8.3633e-15
1.89511e-14
-2.46629e-14
1.38922e-14
-4.87986e-15
-4.92581e-16
1.39598e-15
1.7718e-14
1.07375e-14
-9.56838e-15
1.77396e-14
1.59928e-14
-1.61689e-14
1.3078e-14
1.44999e-14
1.29479e-15
-1.71088e-14
-1.84563e-14
-9.4882e-15
-3.13585e-15
2.83024e-15
2.4148e-15
7.75727e-15
2.19541e-14
2.66855e-14
-1.27519e-15
6.14258e-15
1.28331e-14
-3.84507e-15
2.25623e-14
1.31002e-14
5.41503e-16
1.60055e-14
4.5056e-16
8.22979e-15
1.86695e-14
-1.45348e-15
1.37501e-14
2.19482e-14
2.20603e-14
9.02969e-15
1.8053e-14
1.36183e-14
-5.93682e-15
-8.53369e-15
-2.11194e-14
-3.67231e-14
-1.68342e-14
-3.52435e-14
-2.1337e-14
-1.51145e-14
-2.68927e-14
-1.01604e-14
-1.56783e-14
5.75142e-15
-3.29785e-14
-2.48436e-14
-2.92857e-14
-1.02529e-14
1.17709e-14
6.51741e-15
-1.39968e-14
2.20556e-14
-1.31303e-14
-3.26224e-15
-4.40417e-15
1.07994e-14
2.12776e-14
1.02247e-14
-3.57401e-14
1.0287e-15
3.77124e-14
-1.07712e-14
2.81682e-15
1.44931e-14
3.07049e-15
-1.24377e-14
-2.76471e-14
-5.11494e-15
6.91993e-15
5.60263e-15
1.20263e-14
-3.27825e-16
1.73934e-14
2.96863e-14
-4.39321e-15
-1.1207e-15
1.813e-14
-6.76556e-15
2.81817e-14
4.71562e-15
-9.91384e-15
1.03748e-14
2.51465e-15
1.25605e-14
1.86159e-14
5.09812e-15
1.77874e-14
2.66084e-14
2.13382e-14
1.44969e-14
1.36657e-14
1.45654e-14
-1.28705e-14
-5.42791e-15
-1.11683e-14
-3.49207e-14
-2.93939e-14
-5.03508e-14
-3.29613e-14
2.86758e-15
-2.84376e-14
-1.60107e-14
-2.66043e-14
2.07636e-14
-1.1387e-14
-3.35832e-14
6.65621e-15
-5.227e-14
3.31355e-14
1.57383e-14
-1.73614e-14
5.61007e-14
-9.48094e-15
2.9288e-16
-6.28879e-15
1.13097e-14
1.28095e-14
1.6431e-15
-1.76173e-14
-1.32112e-14
2.38579e-14
-4.97202e-15
-5.13658e-15
-5.29847e-15
3.13049e-15
-3.79646e-15
-2.42505e-14
-1.0494e-14
1.45579e-14
1.12502e-14
3.26051e-15
-7.62822e-15
2.33094e-14
3.10378e-14
-9.31422e-16
-8.13121e-15
1.23157e-14
7.16095e-16
3.6408e-14
8.68344e-16
-1.95903e-14
1.255e-14
-6.78322e-15
1.14485e-14
2.06588e-14
1.74877e-14
9.65379e-15
2.18117e-14
2.9105e-14
1.75806e-14
1.48385e-14
1.32835e-14
3.64804e-15
-1.2728e-14
-1.95416e-14
-3.76423e-14
-3.95484e-14
-4.65319e-14
-2.58757e-14
7.06029e-15
-2.85365e-14
-1.7094e-14
-2.51321e-14
9.5346e-15
1.69337e-14
-2.41306e-14
-4.91904e-15
-2.59056e-14
2.27588e-14
2.6415e-14
4.2798e-14
5.17318e-14
-1.86494e-14
-1.00983e-14
-4.6156e-15
6.62048e-15
1.29235e-14
-8.61397e-15
2.82354e-15
-1.77535e-14
7.77742e-15
-1.30284e-14
-2.29355e-15
9.59161e-15
-1.70023e-14
-2.1144e-14
1.10435e-15
-6.24226e-15
2.86529e-14
-1.73591e-16
1.63941e-14
-1.82925e-14
9.53335e-15
3.3643e-14
1.33554e-14
-1.09939e-14
1.34937e-15
6.10896e-15
3.40711e-14
-1.21272e-14
-1.61571e-14
1.09164e-14
4.07102e-15
1.11391e-14
1.89437e-14
7.31197e-15
6.87154e-15
2.67409e-14
3.36469e-14
1.78087e-14
1.3841e-14
2.14831e-15
5.07368e-15
-5.33005e-15
-3.15224e-14
-4.10503e-14
-5.31029e-14
-2.84997e-14
-2.05316e-14
1.00342e-14
-2.80423e-14
-2.09385e-14
-1.31098e-14
-1.40865e-15
7.50471e-15
-1.27116e-14
-8.2156e-15
-1.93265e-14
3.06286e-14
3.93415e-15
2.31829e-14
-2.45379e-14
-1.22331e-14
-9.27929e-15
-4.58278e-15
2.98645e-15
7.50306e-15
-8.56911e-15
-2.24667e-16
-6.69015e-15
-5.40933e-15
-1.68629e-14
-1.96458e-15
1.28221e-14
-2.50984e-14
-2.7746e-14
1.18794e-14
1.83783e-14
1.98201e-14
-3.60606e-15
-7.9514e-15
-1.4147e-14
1.27403e-14
3.42931e-14
1.51707e-14
-1.81167e-14
-8.39174e-16
1.39858e-14
1.08442e-14
-2.36413e-14
-3.60325e-15
2.58802e-14
1.56623e-15
-1.28446e-15
9.97725e-15
6.73831e-15
1.13013e-14
3.64114e-14
3.12164e-14
2.56788e-14
2.02581e-14
-2.84618e-15
1.68293e-14
-9.60218e-15
-3.05003e-14
-4.63311e-14
-5.25003e-14
-1.62735e-14
-2.12972e-14
7.60086e-15
-2.83763e-14
-2.17847e-14
-1.03527e-14
-1.8814e-14
1.89088e-14
6.11359e-15
5.47948e-14
1.33446e-14
3.47472e-14
-4.64759e-14
3.80954e-14
9.45177e-15
3.94241e-15
-6.3585e-15
-2.61206e-14
1.68801e-14
7.30427e-15
3.22218e-16
-1.01892e-14
-2.39207e-14
-2.14804e-15
-1.05803e-14
-3.49308e-15
1.30362e-14
-1.7401e-14
-2.55873e-14
2.54024e-15
1.80115e-14
-3.95412e-15
8.6885e-15
1.76819e-15
-1.49817e-15
-1.77746e-16
2.52416e-14
4.88465e-15
-1.50483e-14
7.93041e-15
1.78902e-14
-1.22422e-15
-2.19707e-14
-1.48632e-15
2.26503e-14
2.60346e-15
-1.75514e-14
8.62983e-15
1.99971e-14
1.98251e-14
3.84679e-14
1.68421e-14
3.1434e-14
3.23429e-14
8.48278e-15
1.25128e-14
7.35637e-15
-3.93318e-14
-4.32218e-14
-5.63148e-14
-5.83425e-15
-3.00776e-14
-5.42971e-16
-1.54599e-14
-2.49596e-14
-2.39981e-14
-1.8542e-14
7.80873e-15
2.18173e-14
4.27948e-14
-1.04134e-14
3.79227e-14
-1.40651e-14
1.16724e-14
2.95578e-14
-2.68703e-14
-1.19931e-14
-2.35246e-14
1.25331e-15
2.62435e-15
6.51854e-15
-1.95032e-14
-1.30094e-14
-9.97961e-15
2.33062e-15
-8.33272e-16
3.64606e-15
-2.03083e-14
-1.95339e-14
3.16537e-15
1.2091e-14
-1.15842e-14
1.38493e-14
-1.80246e-15
1.25713e-14
1.28162e-14
1.99969e-14
-5.24347e-16
-1.18625e-14
-5.2838e-15
1.33984e-14
-2.46141e-15
-1.59289e-15
-6.00578e-15
5.59285e-15
1.25609e-15
-1.59153e-14
1.44034e-14
3.74875e-14
1.82754e-14
3.33909e-14
1.37173e-14
2.47012e-14
3.88598e-14
1.98967e-14
2.17099e-14
3.50429e-15
-3.81716e-14
-3.90701e-14
-3.71167e-14
-1.43854e-14
-3.79749e-14
-9.72987e-15
-1.00214e-14
-2.26587e-14
-2.52695e-14
-2.33138e-15
-1.76882e-15
1.65018e-15
-3.12734e-15
2.81598e-14
3.86278e-14
-1.34925e-14
6.34212e-15
-1.06701e-14
-8.46275e-16
-1.30335e-14
-2.1951e-14
9.4421e-15
1.40214e-14
1.13537e-14
-2.46263e-14
-2.07543e-14
-1.51303e-14
8.57865e-15
-5.60612e-15
-3.12578e-15
-1.16268e-14
-7.53494e-15
-5.76413e-15
1.68577e-15
-2.78687e-15
1.67606e-14
5.06064e-16
1.14425e-14
1.37544e-14
3.5443e-14
-6.00756e-15
-1.48304e-14
-1.79065e-15
1.0981e-14
-4.92246e-15
1.88331e-16
-9.24094e-15
-1.91838e-15
-3.08898e-15
-3.76181e-15
1.41244e-14
3.22499e-14
2.1109e-14
3.63461e-14
1.61206e-14
2.82708e-14
3.54027e-14
1.69432e-14
8.13325e-15
-7.37793e-16
-4.08766e-14
-3.51712e-14
-2.5411e-14
-1.36317e-14
-4.09922e-14
-1.44646e-14
-1.0599e-14
-2.30141e-14
-2.71272e-14
-1.27962e-14
2.71927e-14
1.31712e-14
5.47223e-15
3.47882e-14
3.25797e-14
-4.54094e-15
-2.05863e-16
-5.5563e-15
1.12864e-14
-2.16546e-14
-1.82237e-14
-2.1953e-15
1.3833e-14
1.90929e-14
-4.65387e-15
-1.83303e-14
-2.07745e-14
-1.02337e-15
1.49202e-14
-9.42344e-15
-1.82696e-14
4.16782e-15
4.64115e-16
-1.96546e-14
-4.45575e-15
2.07594e-14
2.07069e-14
1.07165e-14
1.18178e-14
1.99502e-14
-2.63197e-14
-1.78111e-14
2.56181e-15
1.11495e-14
-2.0459e-15
-4.16087e-15
-1.5169e-14
2.2914e-17
-1.34707e-15
3.30891e-15
2.22442e-14
3.40224e-14
2.32641e-14
2.80433e-14
1.68319e-14
2.49565e-14
3.28775e-14
1.84101e-14
-1.14771e-14
-1.19192e-14
-3.91578e-14
-3.14891e-14
-1.92385e-14
-2.97897e-14
-4.06537e-14
-2.51877e-14
1.79844e-15
-1.58457e-14
-1.52679e-14
-9.89517e-15
4.19042e-14
-1.11207e-14
9.47725e-15
3.86013e-14
3.92957e-14
2.8573e-15
-3.18498e-15
-1.83241e-14
1.92278e-14
-2.97769e-14
-6.74366e-15
6.3871e-15
1.2512e-14
1.04414e-14
-5.00917e-15
-1.25575e-14
-1.94939e-14
-8.3175e-15
1.23508e-14
-1.91294e-14
-2.48962e-14
2.32668e-14
-2.61703e-15
-3.42629e-14
-6.19412e-15
2.07323e-14
1.78358e-14
1.96011e-14
1.6338e-14
1.44136e-14
-2.28236e-14
-1.99238e-14
1.80305e-15
-4.0699e-15
-6.68298e-15
-3.04388e-15
-5.18195e-15
4.52837e-15
5.83592e-15
-5.56588e-15
1.47803e-14
3.09801e-14
3.27591e-14
2.90957e-14
1.87146e-14
3.11655e-14
3.17821e-14
1.02574e-14
-9.42588e-15
-1.14097e-14
-3.07012e-14
-3.31649e-14
-2.02805e-14
-2.15218e-14
-4.3644e-14
-2.05918e-14
-1.40248e-14
5.73829e-16
-2.27587e-14
-1.64197e-14
4.81671e-14
-1.26308e-14
7.97336e-16
4.26273e-14
5.00751e-14
9.64488e-15
-2.07408e-14
-1.10386e-14
3.39187e-15
-2.76003e-14
3.57016e-15
1.6326e-14
-1.60494e-15
2.06061e-14
-1.78985e-15
-1.07753e-14
-9.15046e-15
-6.68141e-15
1.73741e-14
-3.97514e-14
-3.06514e-14
3.53032e-14
-3.06608e-15
-4.00876e-14
-1.78933e-15
1.98576e-14
1.96087e-14
1.91857e-14
2.11149e-14
1.25462e-14
-2.01821e-14
-1.86596e-14
-4.01492e-15
-4.98682e-15
-6.91645e-15
-5.47865e-15
-8.28222e-15
1.06777e-14
3.43294e-15
-7.56927e-15
1.13858e-14
2.52597e-14
4.23058e-14
3.41085e-14
2.3517e-14
2.76345e-14
3.01315e-14
1.57653e-14
-1.04532e-15
-1.94983e-14
-3.37993e-14
-3.70436e-14
-2.37872e-14
4.52645e-16
-4.34843e-14
-3.58882e-14
-1.58443e-14
-5.60999e-15
-9.29978e-15
-4.66884e-15
2.31923e-14
3.66757e-15
-1.0239e-14
3.82815e-14
5.5117e-14
-5.61974e-15
-3.70298e-15
-1.69535e-14
1.25677e-15
-2.13041e-14
3.83937e-15
2.69096e-14
-1.15042e-14
7.22834e-15
1.00888e-14
-5.01079e-15
-3.82925e-15
-6.44125e-16
2.61826e-14
-4.95889e-14
-3.9817e-14
5.89384e-14
-1.09727e-14
-7.35676e-14
-1.25019e-14
3.58216e-14
2.28373e-14
3.14684e-14
1.76629e-14
-6.7987e-15
-1.85683e-14
-1.29493e-14
-5.7318e-15
-5.74221e-15
-9.56732e-15
-3.99112e-15
-3.27129e-15
1.14163e-14
2.17661e-16
-2.78646e-15
1.05544e-14
1.98171e-14
3.75591e-14
4.25782e-14
2.45695e-14
2.10657e-14
3.2847e-14
8.43688e-15
-7.98572e-16
-2.72837e-14
-2.56831e-14
-8.7481e-15
6.13918e-16
-3.57801e-14
-1.15657e-14
-2.20939e-14
-4.69598e-14
-3.31647e-14
-1.65848e-14
-6.25602e-15
3.00594e-15
2.50142e-15
-1.4397e-14
-1.11845e-14
-1.49172e-14
2.30088e-14
2.53455e-14
1.00921e-14
-1.66533e-14
1.93963e-15
-1.12173e-14
1.24865e-14
3.8126e-14
1.67694e-14
8.02719e-15
5.74854e-15
-2.23252e-14
-2.43022e-14
1.33921e-14
9.37373e-15
3.52243e-14
8.00199e-16
1.48616e-14
1.08046e-14
-1.27626e-14
-2.23657e-14
-1.74422e-14
-7.11887e-15
2.05021e-14
2.28538e-15
-5.338e-15
1.47335e-15
1.69176e-14
1.8505e-14
2.0178e-14
2.65356e-14
9.73054e-15
1.53502e-14
1.90947e-14
6.6068e-16
-1.2493e-14
1.25347e-14
2.10887e-14
1.21814e-14
1.78842e-14
1.36465e-14
1.7601e-14
2.4134e-14
-9.6695e-15
-1.97326e-14
-2.16332e-14
-6.63278e-15
4.73651e-16
-3.33869e-14
-1.55486e-14
-1.77544e-14
-5.14765e-14
-3.56611e-14
-1.85365e-14
-3.48004e-15
-8.12547e-15
7.36781e-15
-1.83022e-14
-8.66593e-16
-6.11212e-15
2.19574e-14
2.51743e-14
1.11407e-14
-1.8182e-14
5.90531e-15
-1.23119e-14
9.60525e-15
4.38059e-14
8.7148e-15
2.16726e-15
-1.41644e-15
-1.46103e-14
-2.67046e-14
1.29975e-14
2.18292e-14
3.12157e-14
1.8088e-15
1.55345e-14
7.48646e-15
-9.70592e-15
-1.19047e-14
-1.76866e-14
-9.47578e-15
2.15127e-14
7.25179e-15
-8.83346e-15
5.69108e-16
1.71523e-14
1.42187e-14
2.39439e-14
3.05888e-14
8.92163e-15
1.16901e-14
1.54951e-14
4.67664e-15
-1.2964e-14
1.81075e-14
1.18579e-14
9.84093e-15
1.84658e-14
1.88847e-14
1.56174e-14
1.67199e-14
-1.49274e-14
-2.04438e-14
-2.23309e-14
-1.25671e-14
1.51007e-14
-3.09665e-14
-2.64335e-14
-1.46435e-14
-4.79133e-14
-3.17848e-14
-1.17952e-14
-1.42083e-14
-2.13154e-14
4.58893e-15
-1.00473e-14
-4.59957e-16
-1.88812e-15
2.08205e-14
3.23464e-14
8.30724e-15
-1.80429e-14
2.13145e-15
-5.98797e-15
-2.76181e-15
3.72461e-14
1.59169e-14
4.74441e-15
-8.89182e-15
-1.177e-14
-1.62692e-14
7.43607e-15
2.65743e-14
1.54409e-14
5.92821e-15
7.26072e-15
5.67801e-15
-1.92035e-14
7.48313e-15
-1.45367e-14
-1.22846e-14
2.77658e-14
1.33098e-14
-1.03825e-14
4.85045e-15
1.53493e-14
2.02875e-14
2.4552e-14
1.744e-14
5.46188e-15
1.19072e-14
2.00269e-14
4.81329e-15
-7.0782e-15
9.00416e-15
7.54952e-15
1.40218e-14
1.94029e-14
2.44273e-14
1.69142e-14
8.25499e-15
-6.62692e-15
-1.90561e-14
-3.52104e-14
-7.65181e-15
1.73251e-14
-2.8932e-14
-2.38929e-14
-3.11358e-14
-4.01116e-14
-1.58923e-14
-1.60476e-14
-2.36488e-14
-3.11459e-14
1.06237e-14
-2.53333e-15
1.15268e-14
-3.33166e-15
1.38153e-14
3.1936e-14
2.94244e-15
-9.59702e-15
-3.61445e-15
-1.23146e-14
4.45834e-15
2.76499e-14
1.48053e-14
-5.38651e-15
4.35156e-15
-3.33011e-15
-1.61245e-14
1.28798e-14
3.03946e-14
3.13138e-15
3.13395e-15
6.13814e-16
-5.65705e-15
-1.25665e-14
7.92974e-15
-1.19898e-14
-7.63099e-15
2.73286e-14
1.34756e-14
-1.10849e-14
6.26117e-15
2.13426e-14
2.20821e-14
2.22555e-14
1.59418e-14
4.69528e-15
3.65674e-15
9.00879e-15
1.02875e-14
6.02871e-15
-3.56563e-15
1.44797e-14
1.58195e-14
1.74229e-14
2.48311e-14
1.97491e-14
9.97417e-15
5.67116e-15
-1.45077e-14
-3.98768e-14
-1.98307e-14
5.38244e-15
-2.63674e-14
-2.69219e-14
-2.42993e-14
-3.63203e-14
-9.86862e-15
-9.15682e-15
-2.43305e-14
-2.64074e-14
-3.36966e-15
9.82504e-15
1.18134e-14
2.46699e-15
1.66487e-14
1.98165e-14
2.42202e-15
-5.10753e-15
-2.71088e-16
-2.1233e-15
-1.6998e-15
2.52663e-14
7.57149e-15
-5.62231e-15
1.70489e-14
-3.63827e-15
-1.61897e-14
9.7808e-15
3.28249e-14
5.05033e-16
-1.77674e-15
-3.5502e-15
-1.70177e-14
-8.40909e-15
1.67008e-14
-8.35642e-15
2.98981e-15
1.39398e-14
1.43818e-14
-3.39711e-15
7.59929e-15
1.94536e-14
1.44262e-14
1.63632e-14
8.35763e-15
7.10679e-15
1.17156e-14
2.85768e-15
1.38162e-14
9.02964e-15
-2.4846e-15
1.37616e-14
9.08659e-15
2.1382e-14
2.38813e-14
2.16118e-14
1.00249e-14
2.06747e-14
-1.81929e-14
-4.10094e-14
-1.86848e-14
-3.13123e-15
-2.54641e-14
-2.95096e-14
-1.87341e-14
-3.6811e-14
-1.19014e-14
-1.43076e-14
-1.11891e-14
-2.50521e-14
-2.92801e-14
1.27741e-14
6.21079e-15
2.79018e-15
-1.03097e-14
4.07723e-14
-9.4491e-15
1.72613e-14
-7.40905e-16
1.33945e-14
-1.55408e-15
1.10562e-14
8.2477e-15
-9.53373e-15
2.56742e-14
-4.56428e-15
-1.85707e-14
1.40724e-14
2.79531e-14
2.56127e-15
-1.16886e-14
-9.27095e-15
-1.45772e-14
4.11893e-15
2.23615e-15
-2.17735e-15
5.03445e-16
5.60957e-15
2.03555e-14
5.10496e-15
7.45858e-15
1.38949e-14
9.0499e-15
1.56941e-14
1.28831e-14
6.79849e-15
1.3149e-14
-2.26579e-16
9.31362e-15
1.19611e-14
-3.0671e-15
1.58603e-14
1.85943e-14
2.11095e-14
1.66322e-14
1.94744e-14
1.1812e-14
1.98153e-14
-2.11635e-14
-3.67582e-14
-3.41717e-14
-3.81436e-15
-2.25335e-14
-1.8398e-14
-1.29853e-14
-4.32483e-14
-1.68326e-14
-6.77157e-15
-5.89828e-15
-1.06349e-14
-3.97626e-14
1.94856e-14
2.68613e-14
1.46341e-15
-1.63253e-14
1.93276e-14
-1.91761e-14
1.36014e-14
-6.65901e-15
6.925e-15
8.29119e-15
2.35192e-14
4.32148e-15
-1.82949e-14
1.44078e-14
1.0061e-14
-3.93598e-15
5.74312e-15
1.47934e-14
2.89812e-15
-1.03977e-14
-1.19022e-14
-1.36047e-14
1.62156e-15
-3.5173e-15
8.4979e-15
1.06936e-14
-4.45778e-16
2.30519e-14
1.4817e-14
7.21521e-15
6.82402e-15
1.70691e-15
1.32084e-14
1.74205e-14
3.65018e-15
1.13606e-14
1.98828e-15
7.21484e-15
1.78153e-14
2.18444e-15
1.685e-14
2.12639e-14
2.10456e-14
1.44094e-14
2.07737e-14
1.61536e-14
-4.28216e-15
-1.70002e-14
-2.31278e-14
-3.17146e-14
-1.82446e-14
-2.43409e-14
-2.06421e-14
-1.37564e-14
-2.95434e-14
-1.65041e-14
-2.4685e-14
7.47392e-15
-1.07882e-14
-3.45354e-14
1.45212e-14
6.03566e-15
2.01888e-14
-4.04512e-15
5.58644e-15
8.69689e-15
-1.5989e-14
-5.11449e-16
1.45399e-15
1.05049e-14
2.05845e-14
2.39733e-16
-2.53221e-14
1.39597e-15
2.04457e-14
-3.5329e-15
3.94979e-15
1.15108e-14
-3.52511e-15
-1.13571e-14
-7.18158e-15
-1.26801e-14
1.25705e-14
7.44196e-15
-1.73554e-15
1.051e-14
8.17204e-15
2.69557e-14
1.15767e-14
-5.4305e-15
1.10282e-14
1.41701e-15
2.074e-14
4.91845e-15
-5.26468e-15
9.56007e-15
3.83551e-15
5.82018e-15
1.65328e-14
1.0996e-14
2.19724e-14
2.1423e-14
2.26036e-14
1.47435e-14
1.92406e-14
1.97277e-14
-1.34608e-14
-6.46967e-15
-1.39891e-14
-3.43727e-14
-3.80538e-14
-3.70686e-14
-2.92278e-14
3.52371e-15
-2.21863e-14
-2.26214e-14
-3.3514e-14
1.79655e-14
-5.50493e-15
-2.11017e-14
1.47606e-14
-1.50141e-14
8.59588e-15
1.32964e-14
1.08703e-14
1.86547e-14
-1.42491e-14
-8.17651e-16
-5.15671e-15
8.05587e-15
1.41453e-14
-1.11735e-14
-1.74777e-14
2.82321e-15
8.32157e-15
-3.01678e-15
-4.20702e-15
-1.66633e-15
-1.58402e-15
-9.62097e-15
-1.00958e-14
-1.56791e-14
1.43865e-14
5.59499e-15
1.34393e-14
-1.07189e-15
1.26748e-14
2.83067e-14
1.10317e-14
-1.24155e-14
5.98262e-15
1.16268e-14
3.43792e-14
-3.20038e-15
-1.39777e-14
1.80256e-15
-5.49174e-15
1.4298e-15
2.35476e-14
1.97058e-14
1.66007e-14
2.31901e-14
2.93456e-14
1.89131e-14
1.13252e-14
9.86552e-15
8.85938e-16
-1.37656e-14
-2.00886e-14
-3.08885e-14
-4.67446e-14
-4.14627e-14
-1.70098e-14
4.7238e-15
-2.71477e-14
-2.47628e-14
-1.78788e-14
9.42742e-15
1.37169e-14
-4.26513e-14
3.11036e-14
3.5816e-14
4.06851e-14
9.56413e-15
3.62681e-14
1.73914e-14
-7.65285e-15
-1.86179e-15
-8.21635e-15
7.7549e-17
9.97585e-15
-1.03801e-14
1.30752e-15
-5.53263e-15
2.86632e-15
-1.11163e-14
-8.56216e-15
3.29061e-15
-1.28522e-15
-2.58247e-14
-6.15415e-15
-3.88223e-15
2.34223e-14
6.61689e-15
6.69415e-15
-1.41881e-14
4.23863e-15
3.20527e-14
2.80366e-14
-2.18321e-14
6.21657e-15
1.025e-14
2.61716e-14
-1.22902e-14
-8.64585e-15
8.57838e-15
-5.22517e-15
1.83802e-15
2.18478e-14
1.48575e-14
1.23094e-14
2.57746e-14
3.19459e-14
1.75355e-14
1.40028e-14
1.18707e-15
-5.5602e-15
-8.90243e-15
-2.36675e-14
-3.91673e-14
-4.71954e-14
-3.10099e-14
-1.68761e-14
4.332e-15
-2.42691e-14
-2.14851e-14
-1.43119e-14
-4.294e-15
1.57433e-14
-7.04001e-15
1.55026e-14
-7.41436e-15
2.81467e-14
7.66641e-15
3.63339e-14
-1.86343e-16
-2.73194e-14
-2.33907e-15
-1.44885e-14
6.80164e-15
2.66166e-15
-1.05273e-14
5.58449e-15
-8.74894e-15
-8.67442e-15
-1.01832e-14
-7.88365e-15
1.1071e-14
-1.38991e-14
-2.58719e-14
2.86442e-15
1.69411e-14
7.3696e-15
1.22501e-14
-5.5686e-15
-1.22083e-14
1.106e-14
2.87411e-14
2.23935e-14
-1.49678e-14
3.91928e-16
1.35038e-14
1.20525e-14
-1.96754e-14
-4.73499e-16
1.39191e-14
-6.63989e-15
-9.45827e-16
1.24835e-14
1.94574e-14
1.13623e-14
2.90913e-14
2.77142e-14
2.36492e-14
2.1538e-14
1.49446e-15
-2.822e-15
-6.32823e-15
-2.82798e-14
-4.18276e-14
-4.83479e-14
-2.34266e-14
-2.75879e-14
9.21473e-15
-2.12923e-14
-1.74326e-14
-1.35767e-14
-1.48281e-14
1.49701e-14
-3.22003e-15
3.99107e-14
5.02241e-15
4.64976e-14
-4.22182e-14
1.0009e-14
1.27064e-14
2.65665e-14
-7.37832e-15
-1.87649e-14
1.11738e-14
-3.46566e-15
-7.57743e-15
1.51778e-15
-8.46873e-15
-1.30405e-14
-7.47554e-15
-1.79308e-15
4.54598e-15
-1.47577e-14
-1.45506e-14
-1.3353e-15
2.04474e-14
-5.78379e-15
2.95444e-15
8.5018e-16
-3.00583e-15
6.88328e-15
2.51493e-14
8.68097e-15
-7.58486e-15
-2.68811e-16
1.32184e-14
-2.74586e-15
-1.23158e-14
-2.98836e-15
8.50556e-15
2.62364e-15
-5.65044e-15
1.47526e-14
1.79716e-14
2.3481e-14
3.1601e-14
1.91456e-14
2.76822e-14
2.04579e-14
8.61282e-15
9.56047e-15
-1.26341e-15
-3.28385e-14
-3.84054e-14
-5.01584e-14
-1.25747e-14
-2.86827e-14
-4.70369e-15
-1.14972e-14
-2.70519e-14
-1.69064e-14
-1.40034e-14
1.40202e-14
2.57704e-14
5.76936e-14
8.40116e-16
4.48609e-14
-2.97157e-14
-4.31753e-15
8.41405e-15
1.32017e-14
-7.43108e-15
-2.68729e-14
1.18976e-14
-1.5128e-15
1.38801e-16
-7.19434e-15
-5.20467e-15
-1.06205e-14
-4.96617e-15
1.66538e-16
3.3462e-15
-2.01643e-14
-1.18912e-14
-1.74122e-15
5.21473e-15
-2.36151e-15
6.47089e-15
-4.98539e-15
7.10079e-15
1.55571e-14
2.38142e-14
2.84052e-15
-1.15493e-14
-4.52822e-15
1.34158e-14
-4.71774e-15
-2.56285e-15
-6.27256e-15
7.95603e-15
1.51131e-15
-1.07971e-14
1.72246e-14
2.152e-14
2.31209e-14
3.01858e-14
1.964e-14
3.06468e-14
2.54428e-14
1.3292e-14
1.05248e-14
-2.18192e-16
-3.34783e-14
-3.9153e-14
-4.167e-14
-1.65135e-14
-2.28098e-14
-1.89805e-14
4.7081e-17
-1.98656e-14
-2.77032e-14
-4.07098e-15
5.44018e-15
1.76138e-14
-5.29647e-15
7.54929e-15
3.26405e-14
3.84908e-15
1.03291e-14
-2.86818e-15
4.56548e-17
-1.90017e-14
-1.88914e-14
1.27585e-14
4.15146e-15
3.60695e-15
-1.4777e-14
-1.40278e-14
-1.02632e-14
7.39557e-16
8.53283e-16
8.11932e-16
-1.98057e-14
-1.05123e-14
-5.10559e-15
-1.03771e-15
-5.28012e-15
1.47665e-14
-2.19312e-15
1.5348e-14
1.75195e-14
1.9622e-14
-4.56075e-15
-1.06324e-14
-6.34926e-15
9.12405e-15
-4.13807e-15
-6.51878e-16
-5.94403e-15
3.54416e-15
-8.32684e-15
-1.66679e-15
1.51076e-14
3.03725e-14
2.5193e-14
3.13182e-14
1.89125e-14
2.46006e-14
2.97631e-14
2.10591e-14
-2.30965e-17
-4.9767e-15
-3.10599e-14
-4.32367e-14
-3.27223e-14
-1.4888e-14
-2.73686e-14
-2.05378e-14
-7.53468e-15
-1.67328e-14
-2.79748e-14
1.3012e-15
1.91279e-14
1.60671e-14
6.78018e-16
2.14769e-14
2.59128e-14
5.66743e-15
7.45862e-15
6.67361e-16
1.91192e-14
-2.45925e-14
-2.33518e-14
2.03208e-15
6.63162e-15
1.14953e-14
-8.19988e-15
-6.76215e-15
-2.16413e-14
-2.15509e-15
1.17999e-14
-6.89621e-15
-2.20825e-14
4.11327e-15
2.3729e-15
-2.0595e-14
-2.27509e-16
1.78686e-14
1.10914e-14
1.16443e-14
1.17896e-14
1.95552e-14
-1.87005e-14
-1.14817e-14
-3.41347e-15
5.69906e-15
-9.51695e-15
-1.55597e-15
-8.14392e-15
1.97009e-15
-5.06298e-15
-3.85443e-15
1.76228e-14
4.27102e-14
3.15826e-14
2.63924e-14
1.62578e-14
2.22904e-14
2.96008e-14
1.72432e-14
-1.62592e-14
-1.26423e-14
-2.9934e-14
-4.4588e-14
-2.35894e-14
-2.24829e-14
-3.28877e-14
-1.86434e-14
-4.85505e-15
-3.58493e-15
-1.269e-14
-1.28815e-14
3.63157e-14
-3.79365e-15
1.1968e-14
2.72375e-14
3.44845e-14
1.18823e-14
-8.10508e-16
-1.02687e-14
1.24475e-14
-2.2514e-14
-1.27352e-14
2.61794e-15
5.59182e-15
1.59147e-14
-7.70937e-15
-5.7831e-15
-1.67079e-14
-7.88891e-15
1.35389e-14
-2.72373e-14
-1.93732e-14
1.09232e-14
3.77403e-15
-2.15329e-14
-9.78873e-15
1.53449e-14
1.97106e-14
1.73686e-14
1.56145e-14
1.28317e-14
-2.17689e-14
-1.65075e-14
-4.11296e-15
1.67073e-15
-9.45748e-15
-4.2147e-15
-4.99543e-15
1.86234e-15
1.70798e-15
8.01106e-16
1.16691e-14
3.68656e-14
3.2192e-14
2.52491e-14
2.56779e-14
2.96784e-14
2.2894e-14
9.39374e-15
-1.22127e-14
-1.67831e-14
-2.99126e-14
-4.4583e-14
-2.20228e-14
-1.76529e-14
-3.95867e-14
-1.12114e-14
-1.85128e-14
2.99915e-15
-1.60239e-14
-1.06152e-14
3.10868e-14
9.18719e-16
3.90032e-15
3.46669e-14
4.68438e-14
6.86351e-16
-4.77719e-15
-1.27206e-14
3.16029e-15
-2.97575e-14
3.90715e-15
1.05695e-14
-2.58465e-15
1.46721e-14
-5.4825e-15
4.34167e-15
-5.6369e-15
-7.54933e-15
1.8999e-14
-3.79869e-14
-1.6258e-14
1.53021e-14
-1.24785e-14
-3.12012e-14
-4.14676e-15
1.49757e-14
2.02978e-14
1.70769e-14
2.02565e-14
1.50155e-14
-2.21889e-14
-1.91225e-14
-8.07373e-15
-3.8754e-15
-6.25185e-15
-1.66199e-15
-1.20745e-15
8.91945e-15
-9.00401e-16
-8.00494e-15
1.13393e-14
3.19744e-14
3.08547e-14
3.30685e-14
2.93302e-14
2.77641e-14
2.66468e-14
1.09315e-14
-1.97354e-14
-1.75924e-14
-3.21905e-14
-3.88699e-14
-1.59561e-14
-3.82411e-15
-4.26761e-14
-2.38996e-14
-1.11249e-14
-6.58469e-15
-1.37076e-14
1.40762e-15
2.34183e-14
-6.80981e-15
5.66938e-15
3.85996e-14
4.56329e-14
-8.0451e-15
1.09569e-14
-2.41701e-14
-5.4413e-15
-2.71589e-14
1.28739e-14
1.65748e-14
-8.01266e-15
8.3796e-15
-2.90437e-15
3.00637e-15
6.47454e-15
-3.07698e-15
1.39358e-14
-4.0332e-14
-2.59663e-14
3.12727e-14
-2.3696e-14
-4.47418e-14
-2.24988e-15
1.7662e-14
2.4333e-14
2.41264e-14
1.3287e-14
4.96876e-15
-1.94691e-14
-1.01377e-14
-6.13481e-15
-5.37429e-15
-1.30178e-14
-3.02547e-15
5.88314e-15
4.35612e-15
-2.34808e-15
-8.71051e-16
1.05837e-14
1.46329e-14
3.707e-14
5.26979e-14
2.33969e-14
2.4357e-14
2.9598e-14
1.83436e-15
2.1787e-15
-3.03755e-14
-2.68769e-14
-1.20954e-14
-1.84865e-15
-3.35012e-14
-1.92571e-14
-2.34589e-14
-4.61937e-14
-4.41319e-14
-2.81872e-15
-1.02704e-14
-4.44084e-15
7.38601e-15
-6.8759e-15
-1.99065e-14
-2.7018e-14
1.86607e-14
3.46182e-14
2.38576e-14
-2.00391e-14
-3.68857e-15
-6.87778e-15
1.23827e-14
2.89943e-14
2.0884e-14
2.02478e-14
-6.89811e-15
-2.01085e-14
-6.90296e-15
7.90394e-15
3.38037e-15
2.40557e-14
8.57404e-15
8.3885e-15
9.72606e-15
-3.72208e-15
-1.98224e-14
-1.66984e-14
-1.15824e-14
2.2245e-14
1.93338e-15
-6.85412e-15
3.90626e-15
2.3281e-14
1.57652e-14
1.36817e-14
2.33862e-14
1.52524e-14
1.10729e-14
1.91165e-14
4.39769e-15
-1.22181e-14
8.46436e-15
1.31427e-14
1.99867e-14
1.59548e-14
1.46419e-14
1.4034e-14
2.09638e-14
-1.66636e-14
-2.1948e-14
-2.69551e-14
-1.07473e-14
-5.61597e-16
-2.63209e-14
-2.33563e-14
-1.66177e-14
-4.91697e-14
-3.80817e-14
-9.62801e-15
-5.74537e-15
-8.90989e-15
3.66582e-15
-1.09953e-14
-6.9561e-15
-9.74866e-15
1.27131e-14
3.32781e-14
1.33535e-14
-1.91956e-14
1.68297e-16
2.34721e-15
8.13198e-15
2.60212e-14
1.40598e-14
1.53663e-14
-2.17871e-15
-1.90552e-14
-1.37057e-14
1.02339e-14
1.76132e-14
1.78836e-14
-4.10892e-16
1.32448e-14
1.61601e-14
-1.04352e-14
-1.83728e-14
-2.04113e-14
-3.61392e-15
2.50383e-14
1.015e-14
-7.53149e-15
1.84119e-15
2.25226e-14
1.14973e-14
2.10772e-14
2.58333e-14
9.54329e-15
8.42891e-15
1.54175e-14
2.97948e-15
-1.25645e-14
1.23522e-14
1.53632e-14
1.50316e-14
1.42853e-14
1.53117e-14
1.54712e-14
1.11679e-14
-1.87574e-14
-1.54332e-14
-2.84991e-14
-8.10468e-15
5.54717e-15
-2.65475e-14
-3.28349e-14
-8.01918e-15
-5.14676e-14
-3.85011e-14
-1.19886e-14
-9.34317e-15
-1.63732e-14
5.7272e-15
-1.06464e-14
6.97459e-15
-1.29243e-14
1.91834e-14
2.63282e-14
6.92287e-15
-1.27965e-14
3.93684e-15
-3.99648e-15
-9.64642e-16
3.26118e-14
1.28375e-14
6.08591e-15
-4.71937e-15
-1.15901e-14
-1.59462e-14
1.15759e-14
2.41739e-14
1.03147e-14
7.08878e-15
1.0263e-14
1.05271e-14
-1.24683e-14
-4.16678e-15
-1.50523e-14
-6.33735e-15
2.02519e-14
2.03928e-14
-4.28211e-15
-1.56743e-15
1.83494e-14
1.86795e-14
2.06911e-14
1.3888e-14
5.29401e-15
9.3042e-15
1.86356e-14
8.25343e-15
-9.44101e-15
5.51491e-15
1.48766e-14
1.48649e-14
1.71689e-14
2.25802e-14
1.39697e-14
3.74409e-15
-7.31104e-15
-9.80839e-15
-4.03559e-14
-7.75759e-15
1.02039e-14
-2.24635e-14
-3.23561e-14
-1.94688e-14
-3.86057e-14
-3.11601e-14
-8.09041e-15
-2.02905e-14
-2.23102e-14
9.65679e-15
-1.12908e-14
1.36911e-14
-3.26867e-15
1.70648e-14
2.98144e-14
3.51501e-15
-9.41793e-15
-6.27466e-15
-1.10532e-14
5.55661e-15
3.41333e-14
1.19291e-14
-3.46026e-15
-1.80638e-15
-3.19802e-15
-1.90221e-14
9.47193e-15