/*--------------------------------*- C++ -*----------------------------------*\
  =========                 |
  \\      /  F ield         | OpenFOAM: The Open Source CFD Toolbox
   \\    /   O peration     | Website:  https://openfoam.org
    \\  /    A nd           | Version:  13
     \\/     M anipulation  |
\*---------------------------------------------------------------------------*/
FoamFile
{
    format      ascii;
    class       volVectorField;
    location    "3";
    object      U;
}
// * * * * * * * * * * * * * * * * * * * * * * * * * * * * * * * * * * * * * //

dimensions      [0 1 -1 0 0 0 0];

internalField   nonuniform List<vector> 
54636
(
(20 -7.01486e-18 -4.20647e-16)
(20 8.11026e-17 4.18685e-17)
(20 -1.93337e-16 1.69203e-16)
(20 1.7638e-16 2.08298e-16)
(20 8.85518e-18 3.05205e-16)
(20 -4.20907e-16 -3.25367e-16)
(20 -3.51954e-17 -6.2165e-16)
(20 1.28818e-16 3.72547e-16)
(20 4.72205e-16 1.4114e-16)
(20 1.09694e-16 -6.53843e-17)
(20 7.76018e-17 -1.74181e-16)
(20 -8.98958e-17 -3.79995e-16)
(20 7.96659e-16 2.1282e-17)
(20 2.49646e-16 -4.15252e-16)
(20 -3.72455e-16 -3.26811e-16)
(20 -2.82905e-16 3.87635e-16)
(20 -4.99962e-16 -2.18497e-18)
(20 3.35195e-17 2.41368e-16)
(20 1.16312e-16 3.5352e-16)
(20 -1.53554e-16 4.34253e-17)
(20 -3.92222e-16 4.4512e-16)
(20 2.99343e-17 1.29215e-16)
(20 -3.72832e-16 -2.42276e-16)
(20 -1.257e-16 -4.00019e-16)
(20 5.96946e-17 3.54805e-16)
(20 5.9661e-16 2.88207e-16)
(20 5.99374e-16 -1.56482e-17)
(20 8.02619e-18 -5.11865e-16)
(20 -2.86609e-16 -5.3257e-17)
(20 2.60229e-16 2.22989e-16)
(20 -3.6047e-16 -1.98696e-18)
(20 -6.78309e-16 2.23112e-17)
(20 -5.35599e-16 -1.78467e-16)
(20 -4.6131e-16 -2.22465e-16)
(20 1.6437e-16 4.03755e-16)
(20 -9.15661e-17 -3.30226e-16)
(20 5.24808e-16 -1.03174e-16)
(20 -4.55912e-16 2.8972e-16)
(20 -1.70575e-16 -2.96134e-16)
(20 3.42569e-16 1.84606e-16)
(20 1.83545e-16 7.83299e-17)
(20 2.39525e-16 1.73705e-16)
(20 3.20711e-16 3.8426e-16)
(20 -1.9827e-16 8.96856e-17)
(20 -3.68429e-16 -4.49205e-16)
(20 1.60759e-19 1.48652e-16)
(20 1.88179e-16 4.13766e-16)
(20 9.44439e-17 3.34235e-17)
(20 3.41239e-16 -4.26482e-17)
(20 -1.95203e-17 1.39841e-16)
(20 -2.2814e-16 -2.77518e-16)
(20 -4.26478e-16 -1.23685e-16)
(20 -1.98709e-16 2.26941e-16)
(20 9.07908e-18 1.5897e-16)
(20 8.6431e-16 3.1583e-16)
(20 8.73036e-17 -3.13459e-16)
(20 -3.7718e-16 -5.14162e-16)
(20 -3.1037e-16 -2.0718e-16)
(20 1.35388e-16 2.71001e-16)
(20 5.55041e-16 2.6163e-16)
(20 -1.28818e-16 5.93747e-17)
(20 -1.35644e-16 -2.71931e-17)
(20 -3.51947e-17 2.10646e-16)
(20 5.61545e-16 -3.31152e-17)
(20 -1.29575e-17 3.32643e-16)
(20 -6.10308e-16 -6.43887e-17)
(20 -3.15934e-16 -5.18961e-16)
(20 5.8951e-17 1.79748e-16)
(20 5.86353e-16 -2.31204e-17)
(20 2.92008e-17 6.92024e-17)
(20 -4.52928e-16 -1.27664e-16)
(20 8.47611e-19 -3.14515e-16)
(20 1.23283e-15 -2.57494e-16)
(20 1.8832e-16 -5.02623e-16)
(20 -7.84778e-16 1.31787e-16)
(20 -4.33742e-16 2.05858e-16)
(20 -3.56398e-16 -3.85749e-17)
(20 1.66338e-16 9.04417e-17)
(20 2.07874e-16 2.51446e-16)
(20 -5.64948e-16 1.1126e-16)
(20 -3.79578e-17 6.43634e-16)
(20 2.11504e-16 -1.65462e-16)
(20 -7.31087e-16 -8.10804e-17)
(20 4.42854e-17 -3.15113e-16)
(20 4.09713e-16 2.4906e-16)
(20 3.99082e-16 1.20944e-16)
(20 1.97559e-16 -2.74917e-16)
(20 1.53122e-16 -3.80517e-17)
(20 -2.16352e-16 3.16432e-16)
(20 1.25345e-16 3.04739e-18)
(20 -2.71632e-16 2.14979e-16)
(20 -9.27256e-16 5.74133e-17)
(20 1.9663e-16 1.49774e-16)
(20 4.24098e-17 4.76778e-17)
(20 6.16289e-16 1.11829e-16)
(20 1.82404e-16 -1.61738e-16)
(20 7.85612e-16 -6.16064e-16)
(20 -7.66182e-16 3.57376e-16)
(20 -6.57109e-16 -2.76486e-16)
(20 3.85431e-17 -7.46559e-17)
(20 4.45295e-17 -1.63461e-17)
(20 1.38223e-17 -1.51514e-16)
(20 5.29554e-16 9.71155e-17)
(20 -4.16772e-16 2.0574e-16)
(20 -6.9034e-16 -1.48221e-16)
(20 3.05522e-17 2.17496e-16)
(20 2.20096e-16 1.87935e-16)
(20 1.45937e-16 -1.36848e-16)
(20 1.74856e-16 -3.97696e-16)
(20 2.0734e-16 2.77992e-16)
(20 -2.00571e-16 2.1088e-17)
(20 -2.53909e-16 9.04221e-17)
(20 -1.4716e-16 3.43518e-16)
(20 3.0453e-16 -5.07519e-18)
(20 8.91307e-16 -1.6921e-16)
(20 -1.28354e-16 -1.23885e-16)
(20 -5.94693e-16 -1.13956e-16)
(20 -3.76603e-16 -2.69864e-17)
(20 1.98492e-16 2.34357e-16)
(20 7.3356e-16 2.12253e-17)
(20 -1.50914e-16 4.35387e-16)
(20 -1.58406e-16 2.17983e-16)
(20 7.08129e-16 8.53682e-17)
(20 4.5623e-16 -7.36941e-17)
(20 2.82442e-16 3.8357e-17)
(20 -9.53159e-17 -5.51378e-17)
(20 -7.98527e-16 7.00297e-17)
(20 3.21598e-16 2.02746e-16)
(20 1.21329e-16 -2.8969e-16)
(20 -6.80131e-16 -1.28806e-17)
(20 -5.64033e-16 6.15144e-17)
(20 -2.22984e-17 -1.78631e-16)
(20 9.27697e-16 -2.88476e-16)
(20 -3.01917e-16 -1.66018e-16)
(20 -4.87447e-16 3.41899e-16)
(20 -1.01929e-16 3.38551e-16)
(20 -1.16751e-16 -1.74279e-16)
(20 3.4622e-16 4.55253e-17)
(20 2.60894e-16 3.4134e-17)
(20 -2.03596e-16 4.73389e-16)
(20 5.60884e-16 1.68618e-16)
(20 3.2932e-16 -2.43686e-16)
(20 -4.03919e-16 1.80195e-16)
(20 -5.77821e-17 -6.38651e-17)
(20 7.00185e-16 9.05589e-17)
(20 1.84287e-16 3.86615e-17)
(20 -1.86127e-16 -1.9369e-16)
(20 -7.33112e-17 -2.78843e-17)
(20 -6.09496e-16 3.6897e-16)
(20 8.98735e-18 -1.81624e-16)
(20 -1.12011e-16 6.94259e-17)
(20 -2.59469e-16 1.05493e-16)
(20 8.86247e-16 3.38415e-17)
(20 4.69055e-16 -2.35443e-16)
(20 7.42913e-16 -1.74979e-17)
(20 6.4663e-16 -1.92086e-16)
(20 2.91104e-16 -5.95029e-16)
(20 -9.42762e-17 2.8922e-16)
(20 -7.58103e-16 9.43247e-17)
(20 -4.81251e-16 9.23696e-17)
(20 -2.28335e-16 -1.41287e-16)
(20 -2.2942e-16 -1.72699e-16)
(20 3.43188e-16 -2.41514e-16)
(20 -1.61226e-16 1.8725e-16)
(20 -7.90182e-16 2.65393e-16)
(20 3.26811e-17 1.60246e-17)
(20 8.97537e-17 -9.17764e-18)
(20 9.2815e-17 1.72499e-16)
(20 -1.8446e-16 -8.76812e-17)
(20 4.28788e-16 -4.73963e-18)
(20 2.83398e-16 -8.66875e-17)
(20 6.63223e-17 -7.91638e-17)
(20 -4.99688e-17 1.68845e-16)
(20 3.77711e-16 6.22303e-17)
(20 1.37828e-16 6.83979e-18)
(20 -1.79693e-16 -6.65219e-17)
(20 -3.81061e-16 -2.1804e-17)
(20 -3.89559e-16 -1.07611e-16)
(20 1.09249e-16 9.78501e-17)
(20 1.10856e-16 6.86042e-18)
(20 -6.35394e-16 1.61972e-16)
(20 1.31364e-16 -3.03523e-17)
(20 7.57662e-16 -1.57483e-16)
(20 4.93292e-16 -2.19872e-16)
(20 4.31715e-16 -1.60558e-16)
(20 7.43617e-17 -1.78938e-16)
(20 -4.81785e-16 4.11804e-16)
(20 2.26234e-16 2.74624e-16)
(20 -2.3874e-16 -3.76295e-16)
(20 -3.83349e-16 -4.15967e-17)
(20 1.27344e-16 1.76481e-16)
(20 -7.00466e-17 2.19061e-16)
(20 4.0744e-16 -2.3578e-16)
(20 -1.17539e-17 9.80005e-17)
(20 -5.18175e-16 2.14959e-16)
(20 2.82535e-16 4.77938e-17)
(20 -2.99834e-16 2.33851e-17)
(20 -1.50213e-16 6.51096e-17)
(20 4.87308e-16 -1.36079e-16)
(20 9.76931e-16 3.60256e-16)
(20 -8.70961e-17 -2.58855e-16)
(20 -3.08529e-16 -1.44939e-16)
(20 -1.32668e-16 4.94816e-16)
(20 8.71875e-17 -1.36678e-17)
(20 4.06557e-16 -4.43385e-18)
(20 5.67711e-16 -1.59191e-16)
(20 2.29832e-16 1.53873e-16)
(20 -5.82828e-16 3.59761e-17)
(20 -5.84223e-16 6.18936e-16)
(20 -1.17304e-16 -3.74191e-16)
(20 6.16492e-18 7.72162e-17)
(20 -1.67307e-16 -3.44424e-16)
(20 4.96378e-16 -1.14087e-17)
(20 5.26985e-16 -8.56209e-18)
(20 8.91032e-16 1.01222e-16)
(20 1.02716e-15 -8.5828e-17)
(20 -1.52407e-16 -3.58971e-16)
(20 -8.09917e-17 5.41521e-17)
(20 -2.80942e-16 1.28138e-16)
(20 -8.18633e-16 4.44771e-17)
(20 9.461e-19 7.80588e-18)
(20 -1.1925e-16 -1.21694e-16)
(20 -1.41719e-16 -3.47276e-16)
(20 1.67823e-16 7.47577e-17)
(20 -1.01135e-16 4.5055e-16)
(20 1.37738e-16 -1.45741e-16)
(20 1.58957e-17 -6.09932e-17)
(20 3.59893e-16 2.53276e-16)
(20 -2.4529e-16 4.12757e-17)
(20 -5.18105e-17 -8.62264e-17)
(20 4.68672e-16 -5.41192e-17)
(20 -5.76209e-17 5.06707e-17)
(20 -3.93048e-16 -8.15104e-17)
(20 6.63586e-17 1.78742e-16)
(20 1.83873e-16 -5.20328e-17)
(20 2.94039e-16 -1.09056e-16)
(20 -1.40513e-16 2.58714e-17)
(20 -1.34283e-16 5.40307e-17)
(20 -1.67778e-16 -9.3382e-17)
(20 -3.23816e-16 1.07943e-16)
(20 -6.98827e-16 6.11855e-16)
(20 -1.60943e-16 -2.89693e-16)
(20 -4.92215e-17 -3.02029e-16)
(20 5.01911e-16 -2.4587e-16)
(20 3.01447e-16 8.23598e-17)
(20 1.38965e-16 -1.07771e-16)
(20 6.02735e-16 4.98173e-16)
(20 -2.38537e-16 2.7933e-16)
(20 -6.00029e-16 -4.25726e-16)
(20 -4.04403e-16 -5.38626e-16)
(20 8.69597e-17 -3.74693e-16)
(20 -3.12645e-16 1.81029e-16)
(20 -1.837e-16 -2.24584e-16)
(20 7.77835e-16 -2.80197e-16)
(20 -3.57311e-16 3.16839e-16)
(20 -2.64076e-16 -1.23773e-16)
(20 -1.79743e-16 -1.30734e-16)
(20 5.29659e-16 -1.64483e-16)
(20 6.1378e-17 1.67882e-16)
(20 8.44986e-16 2.96182e-16)
(20 -2.01505e-16 1.17508e-16)
(20 -5.66824e-16 4.6388e-17)
(20 -1.43777e-16 1.30747e-16)
(20 2.33494e-16 -1.71645e-16)
(20 8.49472e-16 6.69671e-17)
(20 4.00907e-16 -1.28932e-16)
(20 4.69372e-16 1.82315e-16)
(20 -8.03523e-16 2.13502e-17)
(20 -1.30667e-16 3.47568e-16)
(20 -3.5102e-16 -1.87822e-16)
(20 2.64357e-16 -2.73571e-17)
(20 -3.98635e-16 -3.94378e-17)
(20 2.1518e-16 4.18777e-17)
(20 8.52445e-16 -1.34495e-16)
(20 8.07748e-16 -2.86218e-16)
(20 6.73663e-16 -1.45491e-16)
(20 -7.30671e-16 -2.11198e-16)
(20 -2.16966e-16 1.22812e-16)
(20 2.58549e-16 -2.28887e-17)
(20 -1.80891e-16 2.17033e-16)
(20 3.00295e-16 9.68095e-17)
(20 -4.17317e-16 -6.2313e-17)
(20 -6.30999e-16 -2.69925e-16)
(20 6.65853e-17 -1.10431e-16)
(20 3.18596e-16 1.40372e-16)
(20 3.47886e-16 -1.54977e-16)
(20 1.00722e-16 1.87801e-16)
(20 3.1248e-16 2.05434e-16)
(20 -3.02794e-16 2.14213e-16)
(20 -4.55132e-16 -8.51926e-17)
(20 1.73055e-16 -1.74438e-16)
(20 4.35584e-16 -1.0631e-17)
(20 -2.25033e-16 5.73668e-17)
(20 -1.84701e-16 1.9572e-16)
(20 2.33464e-16 -1.58648e-16)
(20 2.65668e-16 -9.67445e-17)
(20 -1.08001e-16 -6.27171e-17)
(20 2.2204e-16 -1.52976e-16)
(20 -2.40979e-17 3.50041e-17)
(20 1.287e-16 2.09915e-16)
(20 1.79578e-16 1.59252e-16)
(20 1.27821e-16 -1.14654e-16)
(20 -2.77516e-16 2.06734e-17)
(20 1.9443e-16 -2.87437e-16)
(20 2.88335e-16 3.81812e-16)
(20 -3.46977e-16 -5.90994e-17)
(20 9.17007e-16 -7.2221e-17)
(20 3.09319e-16 4.88505e-17)
(20 -3.44886e-16 -5.24979e-17)
(20 -4.38446e-16 3.36781e-17)
(20 -4.97598e-16 -1.06603e-16)
(20 -5.44926e-16 2.45544e-16)
(20 -4.49377e-16 7.97916e-17)
(20 2.79328e-16 -1.46214e-16)
(20 -2.72739e-16 4.70139e-17)
(20 7.40916e-18 2.62559e-16)
(20 -1.98946e-16 -8.95144e-17)
(20 2.76355e-16 -2.10921e-16)
(20 -4.94075e-16 6.80985e-17)
(20 5.80465e-16 3.23286e-16)
(20 -5.01465e-16 -5.58055e-17)
(20 1.89619e-16 5.31226e-16)
(20 1.73987e-16 -2.73208e-16)
(20 -2.65583e-16 -4.48606e-16)
(20 3.79833e-16 -3.54348e-16)
(20 -4.00993e-17 1.10063e-17)
(20 4.08538e-16 4.52389e-18)
(20 1.36281e-16 1.97293e-16)
(20 -4.18733e-16 4.50936e-16)
(20 -4.92203e-16 1.6049e-16)
(20 -2.08113e-16 -1.46884e-16)
(20 4.03515e-16 2.40624e-16)
(20 7.92253e-17 -2.96173e-17)
(20 5.16091e-16 -3.00354e-16)
(20 6.11724e-16 -1.38455e-16)
(20 7.5826e-17 -1.40253e-16)
(20 -4.18936e-16 -4.0093e-17)
(20 2.48816e-16 3.23784e-16)
(20 -2.64803e-16 -3.92201e-16)
(20 9.61187e-17 -7.27969e-17)
(20 -1.46718e-16 2.73887e-16)
(20 -6.20558e-16 2.34622e-16)
(20 -5.95442e-16 -1.84812e-16)
(20 -2.67173e-16 -1.9325e-16)
(20 1.13932e-16 1.84683e-16)
(20 3.86898e-16 -1.57652e-16)
(20 1.38656e-16 1.09628e-16)
(20 4.88774e-17 8.79112e-17)
(20 3.97659e-16 3.76842e-16)
(20 -2.64275e-16 5.17074e-17)
(20 -1.51112e-16 -1.50623e-16)
(20 2.0915e-16 -3.33044e-16)
(20 -2.92895e-16 -6.16109e-17)
(20 -1.22316e-16 1.5312e-16)
(20 -7.02923e-17 -2.24738e-16)
(20 -1.7998e-16 -1.48823e-16)
(20 7.30422e-17 1.41946e-16)
(20 3.06416e-16 -2.74834e-17)
(20 5.455e-17 -6.05931e-17)
(20 -9.77048e-17 -1.57394e-16)
(20 9.81437e-16 6.97711e-17)
(20 1.44767e-16 -1.09486e-16)
(20 -6.14908e-16 5.71769e-17)
(20 -8.08588e-17 4.69528e-17)
(20 5.97666e-16 2.43035e-16)
(20 2.49611e-16 2.0161e-16)
(20 1.22183e-17 -6.34572e-16)
(20 1.30777e-16 -5.68361e-16)
(20 -2.03556e-16 4.87262e-18)
(20 -1.07095e-16 1.12484e-16)
(20 -1.74797e-16 6.42078e-17)
(20 -4.36538e-16 1.60084e-16)
(20 -5.95689e-16 -1.81665e-16)
(20 -1.45876e-16 -5.56092e-17)
(20 3.30744e-16 1.24693e-16)
(20 -2.49548e-16 -3.3768e-17)
(20 2.7609e-16 2.87161e-16)
(20 -2.88859e-16 2.03332e-17)
(20 5.46132e-16 5.07291e-17)
(20 -4.06304e-16 -5.71762e-17)
(20 2.7948e-16 1.52035e-16)
(20 5.40038e-16 2.76602e-16)
(20 4.92544e-16 -1.75693e-16)
(20 -4.11375e-16 -2.5426e-16)
(20 -5.4774e-16 -2.60617e-16)
(20 -2.23978e-16 1.53902e-18)
(20 6.59004e-16 1.58743e-16)
(20 1.2244e-15 6.11614e-17)
(20 -6.64261e-16 3.51368e-16)
(20 -5.03912e-16 -1.96398e-16)
(20 1.27359e-17 2.28039e-16)
(20 7.56241e-16 1.63287e-16)
(20 1.02084e-16 1.13533e-16)
(20 -6.3965e-17 -1.48998e-16)
(20 6.69856e-16 -4.37562e-16)
(20 -9.18905e-17 -9.63218e-17)
(20 -2.44742e-16 -2.03147e-16)
(20 -2.15114e-17 2.6432e-16)
(20 -9.01755e-16 1.48144e-17)
(20 -2.3746e-16 -1.45063e-16)
(20 -1.2339e-16 6.51899e-16)
(20 -2.78915e-16 3.03851e-16)
(20 -2.46499e-16 -4.23673e-16)
(20 -1.93759e-16 -1.33213e-16)
(20 -7.4035e-17 2.22788e-16)
(20 2.72851e-16 -1.17104e-16)
(20 -2.50774e-16 2.03306e-16)
(20 1.79224e-16 -7.20055e-17)
(20 8.81824e-16 -2.97824e-17)
(20 1.93267e-16 2.18803e-16)
(20 -1.35977e-16 -8.71543e-17)
(20 -4.50703e-16 -1.18692e-16)
(20 -4.65177e-16 -4.62745e-17)
(20 -1.31926e-16 -7.81643e-17)
(20 -2.64496e-16 -6.78235e-17)
(20 -2.75651e-16 -9.68652e-18)
(20 3.11494e-16 4.37121e-18)
(20 8.28647e-17 -1.22399e-16)
(20 -1.29421e-17 -4.60782e-17)
(20 -2.75092e-16 2.84762e-17)
(20 1.05211e-15 2.88823e-17)
(20 1.5086e-17 3.02491e-16)
(20 -7.99026e-16 2.99138e-16)
(20 -3.98682e-16 6.51555e-17)
(20 6.37483e-16 1.70252e-16)
(20 1.22851e-15 -2.74324e-16)
(20 4.12748e-16 -2.07277e-16)
(20 -5.40212e-16 -2.53721e-16)
(20 -3.94442e-16 -1.16053e-16)
(20 -1.0446e-16 1.44451e-16)
(20 6.51035e-16 3.00757e-16)
(20 -5.13706e-16 6.30402e-17)
(20 -1.78655e-16 -1.53008e-17)
(20 8.25286e-17 2.66729e-16)
(20 2.89747e-16 -7.52693e-17)
(20 3.08751e-16 8.64356e-17)
(20 3.08533e-16 2.49153e-16)
(20 -2.05474e-16 -1.82567e-16)
(20 -5.18133e-16 -1.72852e-16)
(20 -1.93448e-16 -1.17677e-16)
(20 5.96077e-16 1.80118e-16)
(20 4.78498e-17 -1.3934e-16)
(20 4.32572e-16 -2.7995e-16)
(20 6.33074e-17 -9.91952e-17)
(20 6.19095e-17 -3.9048e-20)
(20 2.90249e-16 2.79471e-16)
(20 2.14e-16 -2.51021e-16)
(20 8.16391e-16 -1.35804e-16)
(20 8.09411e-17 6.12299e-16)
(20 -2.79204e-16 -1.13146e-17)
(20 6.89084e-16 1.09455e-17)
(20 9.99031e-16 2.03151e-16)
(20 2.15097e-16 2.95391e-16)
(20 -3.49419e-16 -2.83072e-17)
(20 -2.04484e-18 -6.9858e-16)
(20 -1.20859e-16 -4.58805e-17)
(20 -7.01621e-16 -1.95065e-16)
(20 -3.62734e-16 -4.67922e-17)
(20 2.15156e-17 5.17371e-16)
(20 4.20444e-16 -2.00859e-16)
(20 1.02303e-17 1.65135e-16)
(20 -9.79143e-17 2.36091e-16)
(20 -1.00462e-16 -3.9944e-16)
(20 2.60872e-16 8.3278e-17)
(20 -1.1607e-16 3.27466e-16)
(20 -3.56965e-16 -2.39083e-16)
(20 -6.30451e-16 1.33271e-16)
(20 8.65216e-18 4.71507e-17)
(20 5.80808e-16 -6.91e-17)
(20 2.97247e-16 5.63289e-17)
(20 3.54174e-16 -6.33939e-17)
(20 -1.3774e-16 1.48178e-16)
(20 -2.83842e-16 6.95475e-17)
(20 -6.40322e-16 -1.53465e-16)
(20 -1.50984e-16 -1.56015e-16)
(20 1.45042e-17 7.784e-17)
(20 -3.68919e-17 -5.85428e-17)
(20 -2.79529e-16 -2.51635e-17)
(20 1.3343e-16 -9.13227e-17)
(20 1.89129e-16 -9.16315e-17)
(20 -2.10362e-16 3.78895e-17)
(20 2.59155e-16 2.15565e-16)
(20 1.55185e-16 3.18529e-16)
(20 1.41097e-16 9.31281e-17)
(20 7.55376e-16 2.7729e-16)
(20 5.66654e-16 -2.17828e-16)
(20 3.46007e-16 -2.75356e-16)
(20 -5.99249e-16 -1.80201e-16)
(20 -2.06273e-16 -3.50754e-16)
(20 2.48112e-16 4.97314e-17)
(20 3.66839e-16 1.57348e-16)
(20 1.23673e-16 2.47747e-16)
(20 -1.49282e-15 -4.53835e-18)
(20 -5.87039e-16 -1.01874e-16)
(20 -4.12248e-16 -1.49423e-16)
(20 -1.58108e-16 -6.14033e-17)
(20 -6.81853e-17 9.09497e-17)
(20 5.9339e-16 5.70497e-17)
(20 -2.50406e-16 -1.80414e-16)
(20 -3.19007e-16 1.9376e-17)
(20 -3.96238e-16 2.26884e-16)
(20 8.56734e-18 -8.60486e-17)
(20 7.32857e-17 -1.46834e-16)
(20 2.61705e-16 2.61303e-17)
(20 3.81684e-16 -3.31926e-17)
(20 7.64269e-16 4.39982e-16)
(20 -9.23252e-16 1.63886e-16)
(20 2.97748e-16 -4.94139e-16)
(20 1.06639e-15 3.88052e-16)
(20 4.23123e-16 7.15542e-17)
(20 5.05323e-16 -7.72646e-17)
(20 3.96979e-16 -7.0923e-17)
(20 6.24892e-16 1.71114e-16)
(20 4.55466e-16 2.01942e-16)
(20 -7.10315e-16 -3.89866e-16)
(20 -3.26966e-16 6.6605e-17)
(20 -8.72219e-16 3.50121e-17)
(20 -8.00744e-17 1.14799e-16)
(20 1.47403e-16 -3.0135e-16)
(20 7.4665e-16 -3.00487e-16)
(20 3.19695e-16 2.51203e-16)
(20 -5.22123e-17 2.26948e-16)
(20 -4.83668e-16 -2.84305e-16)
(20 1.26009e-16 7.06838e-17)
(20 3.15089e-16 3.69144e-16)
(20 -5.93764e-16 -2.4169e-16)
(20 -4.35537e-16 -7.72518e-17)
(20 3.49994e-16 1.16402e-16)
(20 2.47991e-16 -9.57018e-17)
(20 6.90055e-17 3.61275e-16)
(20 -7.7581e-17 2.50802e-17)
(20 -1.0834e-16 2.74032e-16)
(20 -1.64646e-16 7.22209e-17)
(20 -1.87473e-16 -5.10322e-17)
(20 1.03177e-17 -2.03242e-16)
(20 -6.20661e-17 -1.70311e-16)
(20 -1.72757e-16 -1.60155e-16)
(20 -1.68866e-16 -7.59514e-17)
(20 1.03359e-16 1.55701e-16)
(20 5.93232e-16 1.86961e-16)
(20 -4.53213e-16 1.04988e-16)
(20 -4.52826e-17 9.4048e-17)
(20 7.2373e-16 1.17382e-16)
(20 4.98991e-16 -2.08515e-16)
(20 9.90192e-16 1.79758e-16)
(20 -1.26314e-16 4.77935e-17)
(20 -6.94028e-16 -2.81465e-16)
(20 -6.25699e-16 -9.70107e-17)
(20 -3.13641e-16 -1.63818e-16)
(20 1.89477e-16 1.94814e-16)
(20 -3.97027e-16 -1.25851e-16)
(20 5.17733e-16 -8.08454e-17)
(20 -5.24369e-16 3.65522e-16)
(20 -8.27934e-16 3.50287e-16)
(20 -1.28047e-16 -2.52124e-16)
(20 2.50611e-16 1.22888e-16)
(20 1.46216e-16 -5.23671e-17)
(20 4.81517e-17 -6.53548e-17)
(20 -4.06241e-16 -4.16127e-18)
(20 1.5814e-16 -1.53368e-17)
(20 5.07668e-16 -3.05638e-17)
(20 -3.83988e-17 -5.05722e-16)
(20 -2.08322e-16 -1.14838e-16)
(20 1.37478e-16 1.32132e-16)
(20 4.87699e-16 1.56787e-16)
(20 6.07286e-16 1.26246e-16)
(20 -1.80758e-16 1.19958e-16)
(20 1.17321e-17 -4.10503e-16)
(20 9.15745e-16 5.37697e-17)
(20 4.83142e-16 -4.74716e-17)
(20 1.08259e-16 1.44658e-16)
(20 -4.50119e-16 2.97097e-16)
(20 7.9138e-16 -3.60861e-16)
(20 1.0257e-15 -9.60121e-18)
(20 -6.73652e-16 1.99308e-16)
(20 -1.28271e-15 -7.63281e-17)
(20 -9.48058e-16 2.57621e-16)
(20 6.55969e-17 -1.34646e-16)
(20 5.74946e-16 1.27681e-16)
(20 6.04675e-16 -1.49127e-16)
(20 4.12558e-16 1.87002e-16)
(20 -8.13252e-18 1.43739e-16)
(20 -5.60163e-16 -5.19225e-16)
(20 1.26829e-16 1.35025e-16)
(20 4.84305e-16 -3.34428e-17)
(20 -4.05219e-16 -1.80939e-16)
(20 5.40405e-16 1.60831e-16)
(20 1.09248e-15 1.29152e-16)
(20 -2.24707e-17 -9.50013e-17)
(20 -4.25466e-16 4.77484e-17)
(20 -5.51829e-16 3.65079e-16)
(20 2.08584e-16 4.46692e-16)
(20 5.25329e-16 1.8794e-17)
(20 4.4123e-16 -2.54718e-16)
(20 -1.18157e-16 -1.84949e-16)
(20 -6.53121e-16 -5.49592e-17)
(20 -6.4333e-17 -5.29917e-17)
(20 -9.26586e-17 2.50983e-17)
(20 -1.74068e-16 4.49817e-17)
(20 4.9792e-16 -2.05444e-17)
(20 -3.49629e-16 3.79078e-16)
(20 -2.5366e-16 2.29791e-16)
(20 4.30341e-16 -1.65142e-16)
(20 4.29276e-16 -8.92887e-17)
(20 6.50391e-16 -2.3657e-16)
(20 -6.83217e-16 1.32487e-16)
(20 -5.46966e-16 2.65041e-17)
(20 -4.93158e-16 1.47321e-16)
(20 -3.3905e-16 -5.56309e-17)
(20 2.59735e-16 -3.67686e-18)
(20 -4.1644e-16 1.19339e-17)
(20 5.8775e-16 9.98593e-17)
(20 3.86218e-16 -1.52644e-16)
(20 1.28638e-16 -2.76309e-16)
(20 3.54977e-16 -2.81638e-16)
(20 -7.2495e-16 5.05873e-17)
(20 -2.36605e-16 -2.97113e-17)
(20 1.63279e-16 -1.33284e-16)
(20 6.06432e-16 -1.53518e-16)
(20 -1.59695e-16 -1.61096e-16)
(20 -3.23406e-16 -1.73028e-16)
(20 -5.37383e-16 -2.79751e-16)
(20 4.18388e-16 2.70567e-16)
(20 -3.99567e-17 4.38454e-18)
(20 3.6644e-16 1.1906e-16)
(20 -8.70826e-17 4.31968e-17)
(20 5.54989e-16 -2.38752e-16)
(20 5.05815e-16 -1.85111e-16)
(20 5.96244e-16 1.34475e-16)
(20 2.16868e-17 -1.04911e-16)
(20 -2.28483e-16 1.48144e-16)
(20 -1.12382e-16 1.54068e-16)
(20 7.8008e-17 -3.60304e-16)
(20 1.85352e-16 -3.14817e-16)
(20 1.39521e-16 2.03548e-16)
(20 -9.09291e-16 9.91229e-17)
(20 3.89201e-16 5.59071e-16)
(20 -1.94288e-16 -2.28069e-16)
(20 4.27643e-16 -2.50097e-16)
(20 -3.41732e-16 -1.54464e-16)
(20 1.23046e-16 4.56411e-17)
(20 2.28681e-16 2.42698e-16)
(20 1.75228e-16 -1.88635e-16)
(20 1.19173e-16 -2.43513e-16)
(20 7.68462e-17 -1.21898e-16)
(20 -2.28797e-16 8.13452e-18)
(20 1.01986e-15 -8.23447e-17)
(20 7.09388e-16 -1.37213e-16)
(20 -1.13086e-17 -5.40393e-17)
(20 -3.12503e-16 3.65584e-16)
(20 -4.75941e-17 3.77576e-16)
(20 8.73628e-16 1.38106e-16)
(20 6.3572e-16 -8.66754e-17)
(20 -1.89419e-16 -5.14941e-16)
(20 -4.95905e-16 -6.88759e-17)
(20 -6.38987e-16 2.07177e-16)
(20 2.41827e-16 6.51642e-17)
(20 -1.56771e-16 6.6104e-17)
(20 -4.98919e-16 8.35374e-17)
(20 -3.66639e-16 -1.09004e-16)
(20 -2.72323e-16 6.16867e-16)
(20 -6.88701e-16 4.70385e-17)
(20 -8.72683e-17 -1.14867e-16)
(20 1.01603e-16 -1.33297e-16)
(20 1.70373e-16 -1.23429e-16)
(20 -7.68694e-16 2.27669e-16)
(20 -2.35095e-16 2.77798e-16)
(20 3.02081e-16 1.23225e-16)
(20 -1.9896e-16 -8.29115e-17)
(20 2.61579e-16 -1.90822e-16)
(20 4.09139e-16 1.31382e-18)
(20 6.19934e-16 -7.58019e-17)
(20 1.68098e-16 1.12178e-16)
(20 -2.9649e-16 -3.48216e-16)
(20 -2.06886e-18 2.03237e-16)
(20 -1.77551e-16 -1.49641e-16)
(20 7.11526e-16 4.28009e-17)
(20 6.10613e-16 -1.73468e-16)
(20 2.22987e-16 2.95914e-16)
(20 -6.90242e-16 -2.00026e-16)
(20 2.36293e-16 -1.75322e-16)
(20 2.73142e-16 1.70757e-16)
(20 7.04078e-16 -8.48777e-17)
(20 2.90642e-16 1.33405e-16)
(20 3.08854e-16 2.29907e-16)
(20 -3.59916e-16 2.73173e-16)
(20 6.01582e-16 -3.29158e-16)
(20 3.62216e-16 -7.33766e-16)
(20 2.04567e-16 9.69309e-17)
(20 -5.66138e-16 3.68823e-17)
(20 -2.77554e-16 8.71716e-18)
(20 7.18422e-17 3.11566e-16)
(20 -1.33045e-16 -2.31042e-17)
(20 -3.87033e-16 -4.14351e-16)
(20 1.09843e-16 -1.18847e-16)
(20 2.54624e-16 -2.79933e-16)
(20 1.16222e-15 7.18408e-17)
(20 -1.27726e-16 3.27775e-16)
(20 -2.69285e-16 6.67808e-17)
(20 -8.64365e-16 7.31825e-17)
(20 -2.80142e-16 -1.30108e-16)
(20 3.16567e-16 -3.13024e-17)
(20 5.19304e-16 -1.19364e-16)
(20 -9.66205e-17 -2.85356e-16)
(20 1.4106e-16 1.41689e-16)
(20 1.07267e-16 1.55311e-16)
(20 4.48855e-16 2.96901e-18)
(20 -5.45222e-16 -2.90926e-16)
(20 3.7995e-17 1.24588e-17)
(20 9.00626e-16 4.66096e-16)
(20 3.3434e-16 1.40086e-16)
(20 4.20942e-16 -2.2976e-16)
(20 4.90436e-17 -2.09843e-16)
(20 -8.13639e-16 -6.44119e-17)
(20 -3.43105e-16 -1.28911e-16)
(20 -1.07424e-16 1.91354e-16)
(20 2.59317e-16 -5.70518e-17)
(20 1.79917e-16 4.47917e-17)
(20 -5.26276e-16 3.92736e-16)
(20 -1.0079e-15 1.27192e-16)
(20 -2.15333e-16 1.02801e-16)
(20 -7.86418e-16 2.62211e-16)
(20 -3.0084e-16 -1.31692e-16)
(20 -1.90896e-16 -1.75392e-16)
(20 -5.67821e-16 -3.13607e-16)
(20 -4.29473e-16 1.85926e-16)
(20 1.89729e-16 1.19082e-16)
(20 8.22568e-16 1.6792e-16)
(20 -2.42299e-17 -2.33492e-17)
(20 1.67318e-16 -5.85734e-17)
(20 6.23651e-16 -2.56199e-16)
(20 -3.28399e-16 -2.3382e-16)
(20 1.97679e-17 -1.80303e-16)
(20 4.72207e-16 -2.44727e-16)
(20 5.22703e-16 4.3146e-17)
(20 -1.39242e-16 -3.77171e-16)
(20 -7.18922e-16 -9.3321e-17)
(20 -3.32076e-16 3.10579e-16)
(20 -2.93912e-16 5.03516e-17)
(20 1.23063e-16 2.37663e-16)
(20 -1.37165e-16 -2.25795e-16)
(20 4.60397e-16 1.80831e-16)
(20 1.65626e-16 2.43737e-16)
(20 1.80021e-16 -2.32987e-16)
(20 -1.91852e-16 -2.15662e-17)
(20 -5.89912e-16 1.70778e-16)
(20 8.46006e-17 -4.91156e-16)
(20 -1.10933e-16 -4.77182e-16)
(20 3.39845e-16 -1.14635e-16)
(20 -2.52416e-16 2.72994e-16)
(20 1.43297e-16 8.89558e-17)
(20 5.49128e-16 5.61043e-18)
(20 -1.70879e-16 2.46055e-17)
(20 -9.35937e-16 -2.57321e-16)
(20 -1.98209e-16 -6.01493e-17)
(20 5.83685e-16 1.64269e-16)
(20 3.56027e-16 -1.74589e-16)
(20 -1.50692e-16 2.80948e-16)
(20 2.53374e-17 1.74243e-16)
(20 -1.2308e-16 2.3455e-16)
(20 -2.64672e-16 2.43212e-17)
(20 -5.88936e-16 -6.62218e-17)
(20 6.67736e-18 -1.54248e-16)
(20 -5.31855e-17 -1.15616e-16)
(20 1.32035e-16 -3.30344e-17)
(20 1.24897e-16 -1.32593e-17)
(20 7.9511e-17 3.43043e-17)
(20 -7.00457e-16 3.0509e-17)
(20 2.47289e-16 7.4259e-17)
(20 1.14969e-15 -7.44839e-17)
(20 4.498e-16 -3.84627e-17)
(20 -2.98807e-16 -9.5679e-17)
(20 -5.81474e-17 -1.36707e-16)
(20 -3.44386e-16 4.05234e-16)
(20 -1.88636e-16 -7.42085e-17)
(20 -2.01625e-16 4.70713e-17)
(20 -2.02029e-16 -1.6446e-16)
(20 1.33666e-16 -2.41902e-16)
(20 -1.4245e-16 3.34022e-16)
(20 -4.33244e-16 3.19714e-16)
(20 1.36305e-16 4.24139e-16)
(20 1.69291e-16 2.94584e-16)
(20 -2.09884e-16 -9.95389e-17)
(20 -3.64351e-16 -9.48686e-18)
(20 -1.09674e-15 1.66729e-16)
(20 -2.02124e-16 1.12604e-16)
(20 4.75154e-16 -4.42349e-16)
(20 8.0166e-16 8.15954e-17)
(20 3.52539e-16 -1.59473e-16)
(20 -9.11047e-17 -2.27098e-16)
(20 7.90669e-19 -4.91337e-17)
(20 -1.51745e-16 1.35707e-16)
(20 -7.8966e-16 -1.734e-16)
(20 -2.8287e-16 -3.05322e-16)
(20 4.67824e-16 1.67375e-16)
(20 -3.11891e-16 2.27563e-16)
(20 -1.87185e-16 3.53917e-16)
(20 -2.68971e-16 6.47369e-17)
(20 6.72849e-16 -1.02226e-16)
(20 5.45545e-16 -2.90517e-16)
(20 -5.04867e-16 1.38425e-16)
(20 4.31182e-16 1.79191e-16)
(20 1.2207e-16 -5.98665e-17)
(20 2.7334e-16 -1.06841e-16)
(20 -5.01011e-16 2.93929e-16)
(20 -9.49965e-16 3.17765e-16)
(20 -9.84952e-16 -2.12804e-16)
(20 3.61251e-17 -3.67023e-16)
(20 6.07656e-16 -2.95821e-16)
(20 5.28516e-16 1.72674e-16)
(20 -2.07523e-16 -2.19283e-16)
(20 4.09727e-16 -2.7591e-16)
(20 9.58655e-17 1.85048e-16)
(20 -9.86205e-16 1.808e-16)
(20 -4.64684e-16 -2.46623e-17)
(20 1.06579e-15 9.99565e-17)
(20 1.58328e-16 1.17583e-16)
(20 -1.55514e-16 1.78421e-16)
(20 -5.30965e-16 1.72076e-16)
(20 3.63563e-17 -7.48463e-17)
(20 8.52534e-17 -2.01943e-16)
(20 -1.4622e-16 4.26563e-16)
(20 5.24693e-16 1.29588e-16)
(20 2.3988e-16 -6.78689e-17)
(20 -2.10153e-16 1.6325e-16)
(20 -6.01057e-17 1.90849e-16)
(20 -9.56142e-17 2.73614e-17)
(20 -1.0256e-17 -9.76925e-18)
(20 4.65691e-16 -1.68686e-16)
(20 4.83827e-16 -3.33432e-16)
(20 3.13532e-16 1.73198e-16)
(20 -2.26033e-16 5.53396e-17)
(20 -1.84229e-16 -2.8456e-17)
(20 -1.43584e-16 5.91864e-17)
(20 -3.18378e-16 -1.07967e-16)
(20 -1.05631e-16 1.08089e-16)
(20 -3.22335e-16 -8.86396e-17)
(20 -8.02708e-17 2.96185e-17)
(20 2.23863e-16 2.27671e-16)
(20 1.54511e-16 -5.75231e-17)
(20 1.0039e-15 2.67698e-16)
(20 8.41264e-16 2.39405e-16)
(20 -1.22081e-17 -2.06824e-16)
(20 -3.56349e-16 2.14103e-16)
(20 -6.89183e-16 3.43446e-16)
(20 3.75068e-16 1.13912e-16)
(20 4.3443e-16 -4.94842e-16)
(20 7.20218e-16 -6.67271e-17)
(20 1.84363e-16 -1.10517e-16)
(20 -4.76149e-16 -3.12349e-16)
(20 -7.64875e-16 -8.11263e-17)
(20 4.69763e-17 -3.37819e-16)
(20 -1.34869e-15 1.04077e-16)
(20 4.41223e-16 -1.41221e-16)
(20 -2.69309e-17 -6.60955e-17)
(20 -3.45908e-16 4.6592e-16)
(20 -3.39213e-16 4.57598e-16)
(20 -1.9282e-16 -2.55792e-16)
(20 -2.78413e-16 -3.51205e-16)
(20 1.65082e-16 -3.00261e-16)
(20 -6.56917e-16 -2.90693e-16)
(20 5.89244e-16 -4.26654e-17)
(20 -9.77745e-18 1.24862e-16)
(20 1.61294e-16 -1.28909e-16)
(20 -2.67189e-16 2.28599e-16)
(20 -4.11303e-16 3.47822e-16)
(20 -6.27699e-16 2.04972e-16)
(20 -2.989e-16 -3.87087e-16)
(20 2.64258e-16 -8.51263e-17)
(20 8.9117e-16 -2.50764e-17)
(20 -3.92457e-16 7.89734e-17)
(20 4.28971e-16 -4.21367e-17)
(20 5.74621e-16 8.49508e-17)
(20 -9.14146e-16 1.09427e-16)
(20 -5.80593e-16 -4.13053e-17)
(20 1.17948e-15 -6.55377e-17)
(20 6.47025e-16 -5.86193e-17)
(20 3.51999e-16 1.67003e-16)
(20 -2.51695e-16 3.34731e-16)
(20 -5.12728e-16 2.52087e-17)
(20 -4.54263e-16 -5.0315e-17)
(20 4.72131e-16 4.28429e-17)
(20 6.59796e-16 -1.34364e-16)
(20 3.76726e-16 -2.09578e-16)
(20 1.18193e-17 1.72545e-16)
(20 4.60418e-16 2.42897e-16)
(20 1.83865e-16 3.08044e-16)
(20 1.60091e-16 -2.00841e-17)
(20 1.7253e-17 -3.27126e-16)
(20 -1.41831e-16 -2.38701e-16)
(20 -1.01304e-16 1.7336e-16)
(20 2.19489e-16 2.61146e-16)
(20 9.1833e-17 2.20273e-16)
(20 -9.07791e-17 -1.57382e-16)
(20 -5.72546e-16 -3.23312e-16)
(20 -3.95672e-17 2.82914e-17)
(20 -1.48489e-16 9.31292e-17)
(20 -1.42617e-16 9.60098e-17)
(20 2.12183e-16 1.20877e-16)
(20 2.71486e-16 -2.40778e-17)
(20 5.32752e-16 7.8937e-17)
(20 5.74626e-16 3.35172e-17)
(20 -2.64739e-16 -1.92694e-16)
(20 -2.12492e-16 3.28429e-16)
(20 -2.73867e-16 3.4438e-16)
(20 1.17725e-16 -1.53237e-16)
(20 1.04334e-16 -3.20465e-16)
(20 4.81718e-16 -3.91711e-16)
(20 6.69813e-16 -5.75123e-17)
(20 -8.72614e-16 -3.66136e-16)
(20 -8.26108e-16 -1.50663e-16)
(20 -1.80101e-16 2.20227e-17)
(20 -7.38791e-16 2.84957e-16)
(20 4.29075e-16 -1.46786e-16)
(20 2.76425e-16 -1.65928e-16)
(20 -2.52283e-16 3.9448e-16)
(20 -7.43473e-16 3.82364e-16)
(20 -7.38272e-16 -2.29671e-16)
(20 4.24498e-16 -3.11604e-16)
(20 1.10022e-16 -4.26263e-16)
(20 1.85841e-16 1.12166e-16)
(20 7.01276e-16 -1.68338e-16)
(20 -8.03081e-17 8.53688e-17)
(20 -8.8463e-16 8.08435e-17)
(20 -8.40245e-17 3.3404e-16)
(20 -2.12717e-16 3.53246e-17)
(20 -2.87066e-17 6.74856e-17)
(20 -1.29975e-16 -2.63913e-16)
(20 -2.41513e-16 -2.1856e-16)
(20 2.67585e-16 -1.75635e-16)
(20 -7.99056e-17 5.55196e-18)
(20 9.45747e-16 2.73617e-16)
(20 7.60942e-16 -1.8869e-16)
(20 -7.94538e-16 3.70565e-16)
(20 -4.44686e-16 -3.25419e-17)
(20 6.47868e-16 -5.33488e-16)
(20 3.63159e-16 7.70236e-19)
(20 3.20791e-16 1.49619e-16)
(20 2.59312e-16 -3.90024e-17)
(20 -4.3029e-16 7.46257e-17)
(20 -6.11146e-16 2.94135e-17)
(20 6.20858e-17 1.3219e-16)
(20 -1.05804e-16 2.26057e-17)
(20 1.30348e-16 -1.19575e-16)
(20 3.02423e-16 1.89497e-16)
(20 6.17965e-16 -5.99771e-17)
(20 3.51406e-16 6.965e-17)
(20 1.55026e-16 4.93571e-17)
(20 -2.34789e-16 -1.03271e-16)
(20 -3.41686e-16 -9.55277e-19)
(20 -1.89165e-16 2.20826e-16)
(20 3.68321e-16 -1.45776e-16)
(20 6.34128e-16 1.05457e-16)
(20 5.31757e-16 -9.16966e-17)
(20 -7.32971e-16 -4.30005e-17)
(20 -4.97264e-16 1.42769e-16)
(20 -2.82662e-16 -1.02384e-16)
(20 -2.54584e-16 -5.16895e-17)
(20 -4.21578e-17 2.54604e-16)
(20 2.1849e-17 1.2598e-16)
(20 -2.5606e-16 2.90101e-17)
(20 1.31314e-16 1.34173e-16)
(20 -2.87068e-16 1.17173e-16)
(20 -6.89948e-17 4.05005e-16)
(20 2.53264e-16 2.98338e-16)
(20 -7.06991e-16 -7.03163e-17)
(20 -1.95275e-16 -2.2054e-16)
(20 2.44826e-16 -4.96363e-16)
(20 9.5754e-16 -2.80461e-16)
(20 -1.49524e-17 -3.89507e-17)
(20 -3.93504e-16 -4.3917e-17)
(20 -6.50633e-16 -2.22654e-16)
(20 2.25518e-16 5.40224e-16)
(20 -4.25315e-16 -2.05097e-16)
(20 4.27901e-16 -1.58171e-16)
(20 3.03432e-16 2.61604e-16)
(20 -2.91138e-16 2.51877e-16)
(20 1.1233e-16 3.73223e-16)
(20 -1.08408e-16 -4.8008e-16)
(20 -2.79273e-16 -1.81794e-16)
(20 5.12734e-16 -8.9305e-18)
(20 3.50895e-16 -3.45649e-17)
(20 1.5161e-17 -8.02514e-17)
(20 -1.14796e-15 1.97502e-16)
(20 1.43576e-16 1.68991e-16)