/*--------------------------------*- C++ -*----------------------------------*\
| =========                 |                                                 |
| \\      /  F ield         | OpenFOAM: The Open Source CFD Toolbox           |
|  \\    /   O peration     | Version:  2312                                  |
|   \\  /    A nd           | Website:  www.openfoam.com                      |
|    \\/     M anipulation  |                                                 |
\*---------------------------------------------------------------------------*/
FoamFile
{
    version     2.0;
    format      ascii;
    arch        "LSB;label=32;scalar=64";
    class       volScalarField;
    location    "700";
    object      k;
}
// * * * * * * * * * * * * * * * * * * * * * * * * * * * * * * * * * * * * * //

dimensions      [0 2 -2 0 0 0 0];

internalField   nonuniform List<scalar> 
209453
(
0.0158044961124174
0.0168268475046774
0.0223829455103338
0.0212619795647422
0.0165572669968975
0.0164653908566548
0.0208298623720442
0.0201787976019098
0.0197705404703737
0.0157907102554298
0.0160114039740619
0.015531125623194
0.015383334868819
0.0154602769312069
0.0155981218316044
0.0161721292311559
0.0211260962303247
0.020837515354669
0.0158860152140503
0.0159747810123055
0.0222448624342188
0.022360861999025
0.0162940576450222
0.0156829924510362
0.0155349182198329
0.0156198720313377
0.0157716869970077
0.0165424203767658
0.0236468836728238
0.0235490668764205
0.0161768573324727
0.0167388561153145
0.0247209495775875
0.0249202073418663
0.0171697359096996
0.0173110092259551
0.0253206677787884
0.0238003226543433
0.0169737738289877
0.0171462040018734
0.0234346328392639
0.0226891476118707
0.0171517708695273
0.0169901649577749
0.0210298645781878
0.0196510425003191
0.01657944731773
0.016032955919932
0.0186255116014683
0.0171719228093915
0.0155530608461777
0.0152644628269489
0.0163347249185915
0.0157512182237848
0.015314178698497
0.0150262949326611
0.0150622846883259
0.0150494531092814
0.0150148234110889
0.0150111287259021
0.0150081589054718
0.0150231967628343
0.0150383774447773
0.0150745544727402
0.0150477008120453
0.0152259530780286
0.0163415763595107
0.0163916070418405
0.0152584537205403
0.0150607448944215
0.0150872168552686
0.0156036961638178
0.015701820711844
0.0152726564808457
0.0152904935624642
0.015025262583485
0.0150264926487325
0.0155448873904745
0.0171624343688196
0.0169934049787623
0.0154243658403656
0.015109266445229
0.0151671380512678
0.015183006826745
0.0151177984264449
0.0154491910376191
0.0156441099433641
0.0156660838747032
0.0154657959431373
0.0153238129806177
0.0154462544001051
0.0152039508311052
0.0151313771023757
0.0150871511091184
0.0151274442651246
0.0152115478220352
0.0151446237244041
0.0152010919826867
0.015267374812548
0.0153159125107689
0.0152605665218433
0.0153292623015097
0.0153914757462458
0.0155299346499728
0.0154185655560573
0.0157802574515589
0.0160056922364008
0.0163352313771935
0.0161719142461772
0.0173919838030218
0.0262351526607777
0.0263027303436703
0.0176854604421913
0.0177999335258844
0.0267304993420303
0.0258503580548299
0.0174966923446893
0.0177578253549512
0.0267362503609084
0.0276181104192518
0.0177820688070996
0.017845112544659
0.027344430108962
0.0278062911252538
0.0177383018935115
0.0177954176871635
0.0280173195118116
0.0307047054036189
0.0193206849773908
0.0188945449865465
0.0297782331390556
0.0290361123492222
0.0183283129595569
0.0185395429593123
0.030773806543818
0.0299224134236849
0.0178323319748868
0.0174061506165392
0.026901352728792
0.0246791481795334
0.0172485840795858
0.0168036725700147
0.0238085850894825
0.022185475763904
0.0166954815529402
0.0165815343563036
0.0207669407834019
0.0195442066720903
0.0163203378144791
0.0162470369772679
0.0194022918930043
0.0184878922890005
0.0160177993769095
0.0155545956054762
0.0172471327484386
0.0164286415104032
0.0152819648633621
0.0150548210438005
0.0150200958249767
0.0153218678975171
0.015828007326966
0.0158364255424718
0.0152869895038553
0.0150116246501794
0.0150342914389433
0.0150180271227169
0.0150078721675207
0.0150132625747571
0.0150342661372335
0.0150387261984211
0.0151489652740035
0.0150953684972063
0.0151871200933888
0.0164385892176898
0.0164407593179118
0.0151168558559699
0.015016416292042
0.0150045202193547
0.0152883782956801
0.0158302086263249
0.015909632451255
0.0153437149387086
0.0150013290972942
0.0150126136480017
0.015008563925694
0.015004717181055
0.0150025581847268
0.0150049898004602
0.0150085799020877
0.0150037893580726
0.0150053347878803
0.0150157543730848
0.0150105679477409
0.0150050043188473
0.0150033137276381
0.0150043830769263
0.0150016671454789
0.0150013597549852
0.0150032316817936
0.0150043706890487
0.0150087663629841
0.0150060822519042
0.0150074499902666
0.0150168201593797
0.0150630954671645
0.0150326956706872
0.0150197831772038
0.0150293015833407
0.015075709634817
0.0150560904855764
0.0150821350552685
0.0150998163559049
0.0151326661748758
0.0151178129022291
0.0151571762195015
0.0151923678512363
0.0152353703076357
0.0151997381124131
0.0152430914260663
0.0152811812706108
0.0153340823240422
0.0152909311713822
0.0153446608789568
0.0153872332143632
0.0156682120686701
0.0155510435838548
0.0156315517670922
0.015730033886474
0.0163817718561213
0.0162301938391529
0.0162310792765339
0.0163740722518757
0.0176251553617941
0.0177192751276173
0.0180745906779965
0.0177923502258249
0.0177327945657275
0.0179608522148892
0.0192930822273752
0.0321914217541344
0.0312277773306874
0.0189172929957855
0.0184001355930978
0.0308675099691308
0.0323790462907931
0.01857852611899
0.020243112476572
0.0344460751702985
0.0342216393801979
0.019642163098528
0.0184330166192863
0.0310365292958914
0.0280327766339776
0.0173037822271117
0.0169412865669316
0.0256626212059115
0.0253262098474566
0.0164358808611203
0.016386001964767
0.023628593127217
0.0221418388649256
0.0163737886050953
0.016375087636349
0.0207217932561813
0.0211355165908395
0.0164333448521227
0.0163603860167745
0.019495888348509
0.0192715999702745
0.016093411255641
0.0157614991806794
0.0184038262507037
0.0172328588519011
0.0154241969437371
0.0152512031220128
0.01721054291002
0.0174151709553539
0.0153793579405143
0.0151596674115878
0.0165732304288324
0.0166609568148361
0.0151422691344372
0.0150112307292815
0.0150038394897037
0.0153738830783491
0.015961329602653
0.0159023004357326
0.0153415416015669
0.0150023035861481
0.0150088601341885
0.0150059474657229
0.0150026240706949
0.0150025873436957
0.0150062198189627
0.015006371236029
0.0150024515178951
0.0150024353668063
0.0150064900502324
0.0150067789326928
0.0150017044681597
0.0150009332920041
0.0150008407045028
0.015004628263344
0.0150051191479618
0.0150150300956771
0.0150127285657821
0.0150306283110727
0.0150398146572856
0.0150868193184193
0.0150688093840334
0.0150938890968776
0.0151068470172768
0.0151362508112019
0.0151272204036888
0.0151143622334646
0.0151248923312085
0.0151584947998681
0.0151486657806854
0.0151545728162994
0.0151692341518231
0.0152068023697303
0.0151911878981422
0.015228509342766
0.0152451492616448
0.0152819872577935
0.0152656949325146
0.0152855092213008
0.0153022372785029
0.0154079284788223
0.0153664412016721
0.0153744716393981
0.0154171725856956
0.0156994261485985
0.0155876390693606
0.0156267734024236
0.0157326105718263
0.0157844806736482
0.0156964581294203
0.016298913861451
0.0164420517607969
0.0164315186886376
0.0162891012026013
0.0164811433588227
0.0165947010390721
0.0178446045611146
0.0180986514785974
0.0194812135578843
0.0355309464747498
0.033531109892896
0.0191759169842516
0.0199665710680036
0.0207754362001656
0.0382724263936871
0.0355832268249771
0.0340178168438656
0.0190941916372256
0.019750089832336
0.0360566118939108
0.0386446304609241
0.0429806941809284
0.0215334998208738
0.0204058164485923
0.0193009260956327
0.0188101597225417
0.0188434054732102
0.0193077191632706
0.0204954420972138
0.0214580900703283
0.0457110656959714
0.0410181004352919
0.0432194982412345
0.020563917184153
0.0207397775716666
0.0397930693751718
0.0397106177037709
0.0207788081565085
0.0207074754053953
0.0366054681389988
0.0204448916832437
0.0180797844879219
0.0204620439694259
0.0402989415849093
0.0351279258343275
0.020154100191664
0.0195676862981837
0.0326945556700224
0.0295519996062281
0.0175394410010459
0.0166021416613959
0.0272913730347874
0.0280693889299266
0.0165664016576284
0.0164837352384055
0.026041954810283
0.0242801339323575
0.0164557863562101
0.0164492024213128
0.0227561553607507
0.0234885107059683
0.0165522197960134
0.0165792994292933
0.0213923832386728
0.020530964911167
0.0164121648852874
0.0160191109405505
0.0197791441635423
0.0189777842590735
0.0158645422025834
0.0158740556366359
0.0196710545668486
0.0181593075752026
0.0154652285845077
0.0156208130227397
0.0185622961471009
0.0186799542081056
0.0154690029330278
0.0153448236224429
0.0175316050614903
0.0173243634427237
0.0151401259934833
0.0150692163413943
0.0165555894029427
0.0165525909949167
0.0150711840160464
0.0150131967719185
0.0158998291982927
0.0153411550421714
0.0150033591548405
0.015003852174948
0.0150084378577777
0.0150071899218096
0.015002625056139
0.0150023907357082
0.0150075704202479
0.0150079328000044
0.0150022030019323
0.015001647924276
0.0150125900046143
0.0150063486862596
0.0150048882112717
0.0150002312643436
0.0150000476947612
0.0150057532203311
0.0150043061740104
0.0150224384008518
0.0150379808287505
0.0150785600176119
0.0150527686379323
0.0150158928191178
0.0150225713199593
0.0150768114095475
0.0150478950913567
0.0151019874568218
0.0151407978340115
0.0151668494194248
0.0151326300984989
0.0151733710122472
0.0152059136775865
0.0151434816706767
0.0151311705176442
0.0151670694232323
0.0151789968732352
0.0151696485036248
0.0151613177788946
0.0151953169940575
0.0152038441550152
0.0151929365243635
0.0151828831943362
0.0152174290113953
0.0152279396280759
0.0152621293504718
0.0152513869717157
0.0152699849522288
0.0152817421874919
0.0153012409260618
0.0152843192221513
0.0153040920053328
0.0153224122444488
0.0153233065832646
0.0153051480287446
0.0153890699157226
0.0154293517281345
0.0154400460850622
0.0153994848717508
0.0154226947484908
0.0154637559785635
0.0157590178134801
0.0156596836758808
0.0157795769608438
0.0158411246027988
0.0165289158895457
0.016388349898968
0.0166154393989092
0.0167029560379966
0.0172092430515643
0.0171262665709065
0.0186161561060254
0.0183493536691197
0.0171522206295936
0.0168508394532097
0.0163384321426049
0.01583573925319
0.0157254388420392
0.0157291269010482
0.0156753653175085
0.0156652205598267
0.0156309301471546
0.0157448492678321
0.0157303334088168
0.0162972978748275
0.0168621160472717
0.0268469747086106
0.0238091293377243
0.0164499745207504
0.0158103880946206
0.0218198851388997
0.0201160890622339
0.0156095005040422
0.0153209560828761
0.0193234950101502
0.018240665631306
0.0152209243857574
0.0152247819352173
0.018224792429202
0.0173169728279125
0.0151433540421808
0.0153587245149301
0.0175243854421673
0.0166620216208888
0.0151467981064342
0.0150111767774164
0.015005526718746
0.015372857004231
0.0159609621223172
0.0159108082962979
0.0150130677904306
0.0150018344139944
0.015342500264482
0.0152870848481813
0.0158055492585641
0.0150152743186814
0.0150023375190893
0.0150034129900596
0.0150085691438592
0.015006933729905
0.0150030474712607
0.0150043767738382
0.0150095668012327
0.0150128039829083
0.0150588506343986
0.0150552963197288
0.0151641522308663
0.0165770344429751
0.0164011339053692
0.0150995180463332
0.015158161465886
0.0163851303686875
0.0158073936747196
0.0152852767939221
0.0150065773226551
0.0150281557903697
0.0150147078450152
0.0150046518533774
0.0150097098686384
0.0150328955215446
0.015044112883585
0.0150091236510103
0.0150270164764093
0.0153128722011781
0.0157399411191064
0.0150625485778959
0.015280597277561
0.0163156929988545
0.0162936761075747
0.0162772448156156
0.0151432645287236
0.0152525672273105
0.0150607317384564
0.0150440744621377
0.0150190808194349
0.0150270029980529
0.0152725217309131
0.0152904668715929
0.0155948254130788
0.0156530521018854
0.0155925449681173
0.0154124611545646
0.0168737353549642
0.0169833507957812
0.0171594926145596
0.0155444448433601
0.0159815044765773
0.0185688784295763
0.0182579682569723
0.0179215704340656
0.0157001903028374
0.0158416385913689
0.0156362441759913
0.0154203522089557
0.0151317518627481
0.0152000217018479
0.0152267313121086
0.015150470545295
0.0153082209910571
0.0154450365478204
0.0156580997611666
0.0154366429264959
0.0156965584788125
0.015919734082924
0.0189690741329384
0.0186179139767116
0.0195677574730633
0.015736394988003
0.0159895182122771
0.0199252615548095
0.0205805131764134
0.0163908506915647
0.0164708870314808
0.0209941940863226
0.0208359254808441
0.0205975083269201
0.01580179502842
0.0161212454086472
0.0155671332241261
0.0154198226596577
0.0152215395956649
0.0152769736493848
0.0153264642302417
0.0152745326352853
0.0152149165542185
0.0152479774161298
0.015290355750204
0.0152558882674952
0.0152024554146225
0.015214725214188
0.0152509829782676
0.0152385304362462
0.0152298616270684
0.0152389030515042
0.0152736234012188
0.0152639833920111
0.0152828586543633
0.0152937265113618
0.0152816668018371
0.0152698662510475
0.0152897119211325
0.0153035163228735
0.0153033199850831
0.0152896115680292
0.0153097851065858
0.0153265047531256
0.0153448858178492
0.0153241847894471
0.0153251270790694
0.0153457125448067
0.015450554368741
0.0154107140532977
0.0154226861959713
0.0154580514481332
0.0154720213633072
0.0154383736491324
0.0154503905874958
0.0154847862920968
0.0154855350864773
0.0154513295966386
0.0156795660989119
0.0157634990006109
0.0157881507287061
0.0157037692744598
0.0158100771097274
0.0158663209429546
0.0158714620475813
0.0158322779384797
0.0159149894461699
0.0158754317228156
0.0158490919314903
0.0157932654815308
0.0157895500883934
0.0158479796661649
0.0157673810146863
0.0156772654593944
0.0156667559011569
0.0157558580939019
0.0154712836551865
0.0154348133229579
0.0154346664501077
0.0154710248384847
0.0154854506578025
0.0155215411612694
0.0155380339662048
0.0155470552968658
0.0155469214930869
0.0155614051483382
0.0155616733623801
0.0155634304912624
0.0155629588173197
0.0155714791796829
0.0155697812921914
0.0155867360583675
0.0156096070271879
0.0156125565566465
0.0156724818635126
0.015812394657769
0.0159007090262832
0.0154445699789717
0.0154712481206561
0.0161889502911978
0.0237846554246772
0.0220994439574766
0.0159358469999234
0.0155756580134989
0.0205821187520199
0.0205526533168596
0.0157764467315272
0.0153603986695516
0.0192930721171374
0.0200037640531282
0.0156789828395638
0.0154757683951283
0.0186406666752636
0.018512189441025
0.015523336161973
0.0153748421492316
0.0180440072351736
0.0180753997121299
0.015574836365697
0.01532339588801
0.0171242252270306
0.0172039097034133
0.0154687747177655
0.0157221439553065
0.0182098285949076
0.0199874752584507
0.0163433224808956
0.0161649531812738
0.0192466241895834
0.0195370179163692
0.0165618473870607
0.0165846804676513
0.0201895333040151
0.0214810187305424
0.0168785898074679
0.0167047459585309
0.0220792795451426
0.0220455285192449
0.0219984728310534
0.015865354942031
0.0162156297114146
0.0156388731060802
0.0154916068184507
0.0155890359149676
0.0157365344068152
0.0153879472328685
0.0153339543517438
0.0154088597128693
0.015471427013801
0.0153350337890023
0.0152995326000112
0.0153446800140945
0.0153776886029888
0.0152861410062581
0.0152739486103511
0.0152932686851991
0.0153063783296141
0.0152937148905124
0.0152828494510034
0.0153032917096144
0.0153164166012769
0.0153162247634649
0.0153031249261506
0.0153242066480762
0.0153407260948897
0.0153271388714783
0.0153102065336845
0.0153210802442404
0.0153354475877598
0.0153482357877267
0.0153350326406343
0.0153344034660609
0.0153473483152474
0.0153472250541436
0.0153342648549962
0.0153482669144002
0.0153647339214984
0.0153651975348449
0.0153485272989675
0.0153493636453625
0.0153658546583548
0.0153657218431764
0.0153492020582494
0.0154323812354098
0.0154653908517315
0.0154768685088125
0.0154459712892881
0.0154555151602668
0.0154874430589021
0.0155002245558868
0.015467573855329
0.0154690653291267
0.0155014982864546
0.0157731482494662
0.015694795065177
0.0157305319678868
0.0158112774405189
0.0158901461345009
0.0158346877711992
0.0159025218632474
0.0159260795676611
0.016261759782883
0.0162726425279278
0.0163081059539412
0.0162981568035144
0.0167788711392097
0.016700750052279
0.0172302650394521
0.017306354717595
0.018989517066466
0.0185867854822231
0.0208882551571479
0.0447275162353827
0.0408455775462777
0.0203504305527972
0.0204706985309511
0.0429199206965944
0.0451578679761456
0.0204501596584954
0.0207307599832992
0.0430850456234361
0.0435985781927355
0.0208248188269852
0.0208999176305671
0.0487511919880169
0.0441183344643886
0.0215252496382297
0.022374168163066
0.0434223282897459
0.0379553442054365
0.021701169070386
0.0214917811922141
0.0375217010448706
0.0350350756093542
0.020816737388752
0.0203671421497137
0.0342724380411247
0.0366685471732566
0.0193364664743438
0.0180929529516524
0.0328615575696884
0.030319479916224
0.017073932824404
0.0168922045385329
0.0330934151789276
0.0301153887000321
0.0166730553911509
0.016606141072767
0.0274736237313215
0.0252844472996411
0.016566105849682
0.016572143583869
0.0242609343254342
0.0228042856288036
0.0165566910793929
0.0161625579719228
0.0216934262670258
0.0205091607412222
0.0161125331075666
0.0160585427431424
0.0204442158789454
0.0159892183277303
0.0161026523520478
0.0161623430661131
0.0218310703946202
0.02273959643191
0.0161455150692482
0.0160510878900148
0.0202821739888449
0.0153284187012197
0.0151294923037481
0.0151341891834818
0.0152866521029832
0.0159372949997825
0.0198891843578649
0.0191135081274777
0.0156806622420179
0.0160321535505983
0.0194298252517557
0.0204127537590442
0.0164210084269793
0.0167965197277656
0.0211233988576127
0.021128926365725
0.0166110393714562
0.0166570597186395
0.0217149083213939
0.0224660859253052
0.0170419355156786
0.0170283389410263
0.0231018949688274
0.0234132741685241
0.0169003562061272
0.0162609034923954
0.0159072412036655
0.0227990820010473
0.0232481085939836
0.0243613460588124
0.0239093043831954
0.0165017277118477
0.0169711626100868
0.0159410897727022
0.0157491580915535
0.0161477901217652
0.016422265245836
0.0155842748474221
0.0155160635206044
0.0155451682383975
0.0156101639172897
0.0153993393561107
0.015366550923334
0.0153649650019588
0.0153968186230442
0.0153063868699282
0.0152931994449049
0.0153141541047397
0.0153293823269792
0.0153290732670836
0.0153140291728305
0.0153357520738232
0.0153540649872398
0.0153412673133611
0.0153246382677448
0.0153361916225114
0.015350191228011
0.0153637270850119
0.0153510173797381
0.0153501639436941
0.0153628405127535
0.0153629406444949
0.0153502958026637
0.0153353824299036
0.0153485216093007
0.0153632295744826
0.0153506444813658
0.0153499584734508
0.0153626436578477
0.0153615027494428
0.0153491394020646
0.0153489863408368
0.0153613566784371
0.0153784052522137
0.0153628271477114
0.0153633101739886
0.0153792117383094
0.0153796650045199
0.01536396173085
0.0153638184153107
0.0153795218270095
0.0153935471000188
0.0153776605367175
0.0154579817421336
0.0154883916311069
0.0155028490859083
0.0154708949936453
0.015483096600804
0.0155158877327062
0.0155176188014515
0.0154851083589618
0.0157073071241745
0.0157839327611892
0.0158345075563016
0.0157534657659817
0.0158591171486633
0.0159156029407154
0.015957461874031
0.0159368489635097
0.0159732349085303
0.0159869304689233
0.016475480097078
0.016474658406676
0.016496610238654
0.0164922512490007
0.0168567210183102
0.0167885108530714
0.0173268717269149
0.0173948361518124
0.018844452966393
0.0185881148139831
0.0207428028038872
0.0475443915405374
0.0429377276881338
0.0203471178462262
0.0204077935402086
0.0462818065716946
0.0517844911872436
0.0207736782790223
0.0186500050689418
0.018870229399791
0.0189508109381403
0.0187427905981936
0.0208659757651783
0.0569318040710353
0.0502173423366109
0.0205154817517244
0.0207099094235811
0.0542406636970255
0.0492961302139434
0.0204788507735171
0.0209187907646409
0.0479530726910641
0.0538367181156897
0.0213931347583537
0.0211471017339168
0.0550095263719075
0.0503977717302759
0.0238995811065936
0.0251848954320948
0.0486010944830281
0.0415666420203968
0.0235591200152828
0.0233881411967549
0.0412473715489599
0.0384707004149256
0.0221618354740392
0.0204597794450901
0.0370639584605472
0.0432298576203738
0.0211332226829833
0.0197077997262802
0.0404579406732504
0.0449632398100325
0.0189629115622726
0.0183272746842205
0.0404485822323995
0.0364601462288265
0.01737603826858
0.0169611182329769
0.0339349496840207
0.0310294816780171
0.0167960905207248
0.0166961301934801
0.0284662738464288
0.0261626656031624
0.0166154387379227
0.0162394333135012
0.0244411102230314
0.0229168803995462
0.0161919540364937
0.0162058807542879
0.0230206058985788
0.0242602581307025
0.0164371261654525
0.0172903711888496
0.0257029280436804
0.0273723107451513
0.0175707505901156
0.017406539669207
0.0281538291193775
0.0301921627882334
0.0178910012909831
0.0173557136774184
0.0298192040126952
0.0259233998605182
0.0166492661689037
0.0170567496966347
0.0256924832562022
0.0238424211221711
0.0162327434059482
0.01599681511259
0.0221043457669195
0.0241998270769331
0.0165849229507577
0.0162751440837088
0.021627892774379
0.022113370900752
0.0168607552441802
0.0161225201349448
0.0207024188651717
0.0200649453055844
0.0161555399198365
0.0163401023852669
0.0209188896293956
0.0218099557800363
0.0167728539535423
0.0168873602565528
0.0228814799348174
0.0227295971044662
0.016735400980714
0.01693319107934
0.0233678750682122
0.0244070224865138
0.0173152839374481
0.0175526158772755
0.0248787813689568
0.0247791808653398
0.0174295046121485
0.0179608857943131
0.0263584570515793
0.0256528102385425
0.0252084371639302
0.0171485046541451
0.0176987423426562
0.0183641076999725
0.0179113490260211
0.0268419690041504
0.0271587505856848
0.0279764045206807
0.0184746497764096
0.0187926763807928
0.0300497883422164
0.0292407222278457
0.029338355984765
0.0189586516890392
0.0191192881362004
0.0185226832296487
0.0180689660310539
0.0178095453005766
0.0183822519586839
0.0165062500685492
0.0162468692707098
0.0162310940052657
0.0164955989399975
0.0156225506381659
0.0155516178636064
0.0155861952230997
0.0156551494739603
0.0156313530362824
0.015571191766746
0.0153900633305696
0.0154233640533557
0.0154166793943791
0.0153856285562588
0.015406307563792
0.0154375192906569
0.0153548783222643
0.0153362661160997
0.0153484636032094
0.0153641542476039
0.0153783864289993
0.0153641660472855
0.0153630358557369
0.0153772487488999
0.0153766135940924
0.0153625594207614
0.0153512087343351
0.0153639725684196
0.0153798862129143
0.0153676105097118
0.0153669759097079
0.0153791924708282
0.0153779992961268
0.0153658614348165
0.0153660810876637
0.015378199772534
0.0153939108904531
0.0153814463298971
0.0153654513377277
0.0153783595988375
0.0153773599847491
0.0153643366628921
0.0153633168273661
0.0153759616041991
0.0153757612008266
0.0153631385048787
0.015376662699202
0.0153923212900087
0.0153934719947373
0.015377341826878
0.0153778030718328
0.0153937496059441
0.0154079975448715
0.015391460015915
0.0153913006487256
0.0154077019096045
0.0154998974311347
0.0154695336523744
0.0154856358649149
0.0155181101299877
0.0155316104732336
0.0154981485947336
0.0155006526651532
0.0155338033898637
0.0157953887722828
0.0157192345194913
0.0157752291693094
0.0158575446935727
0.0159415321697828
0.0158834524004654
0.0159077916602072
0.0159674943194606
0.0160159083376772
0.0160024323218383
0.016031894408592
0.0160451464479432
0.0165995609637955
0.016612479540061
0.0166263700542916
0.016603173992751
0.0169394726551358
0.0168821788738824
0.0174426436876539
0.017506254421351
0.0176387448481112
0.017574569707173
0.0177186204231511
0.0177831623194432
0.019054085999267
0.0188588562236351
0.0209931745088583
0.0631289254099051
0.0549615552148342
0.0206582499059497
0.0209899505755639
0.0600336632132047
0.0609287522131639
0.0219159068321487
0.0212943664017693
0.0612398320639057
0.0577731934761966
0.0242796904681275
0.0265364531697288
0.0614169094248325
0.0555831070386767
0.0269080084332535
0.0271670276460618
0.0524219604796967
0.0452117038254507
0.0250447352976703
0.0247370831056242
0.0445256653331738
0.048400053190672
0.0246804518809786
0.0233733157137425
0.0480345494448334
0.0520038484502063
0.0235268560951338
0.021587087132611
0.0495387918852421
0.0445341234154026
0.0202354038481785
0.0197601811497032
0.0499055868433241
0.044817151729079
0.0180787384150287
0.0176006492398959
0.0408521879058874
0.0372201608445479
0.0172368665826193
0.0170299018475895
0.0347281545237325
0.0317217201401065
0.0167989843353268
0.0166294423318443
0.029051977919635
0.0266082309721583
0.0165282761424548
0.017082753696808
0.0259848437780183
0.0268277873146134
0.0175978343417197
0.0176876310241861
0.0284746671118094
0.0307499105051892
0.0177845660744427
0.0179655339555867
0.0334172671259561
0.0363884888960099
0.0181449038808158
0.0178516639893126
0.0312325708669304
0.0338970208663094
0.0184590119925138
0.0179118594583307
0.0331146739880083
0.028532834220788
0.0170643482194054
0.0178751804852505
0.028858827349824
0.0313493825739898
0.0190618970401021
0.0185561617731002
0.0298938773828902
0.0268497918042204
0.0170027574531544
0.0174122647669241
0.0261314206036625
0.0285880184814312
0.0175201503249508
0.0173404971886433
0.0264787080142768
0.024727966360348
0.0172421380159196
0.0171674453689698
0.0231080990153253
0.0219106889404216
0.0164739833369542
0.0164038882468084
0.0215953576276189
0.0227001739046623
0.0170323817903944
0.0171196447522606
0.0249687372846748
0.0245749679753862
0.0170066585061102
0.0169997503031884
0.0244677883362266
0.0252850204333891
0.0174849917731887
0.0184824933613288
0.0273955550040751
0.0270132141036104
0.0185066387449315
0.0184121928294888
0.0276289478671729
0.0281533814614904
0.0188875937846251
0.0191577474593889
0.0306972876539689
0.0332325199104149
0.0192724570953742
0.0190910698575162
0.0323775412495108
0.0314843376859259
0.0321704721649085
0.0190748191568706
0.0196332680533787
0.0183091775528744
0.0179638965571378
0.0163310034969333
0.0165833851052687
0.0165303187814958
0.0162903778032683
0.0163326741973945
0.0165382512204
0.0156880289823956
0.0156202691585444
0.0155938084601667
0.0156484617646438
0.0154493345501044
0.015414376546924
0.0154272500055849
0.0154576843458864
0.0154724552926639
0.0154439945733139
0.0154355388981712
0.0154613321867029
0.0154493549034408
0.0154246117601162
0.0153640343359475
0.0153784467636327
0.0153956229618353
0.0153818142533947
0.0153814979534908
0.0153950144699317
0.0153938104273263
0.0153801764074037
0.0153791290471208
0.0153925537853731
0.0154095375372571
0.0153957837426886
0.0153839483869316
0.0153966161980539
0.0153953241976204
0.0153827557021823
0.0153812195872772
0.015393669002827
0.0154098681932118
0.0153967103449886
0.0153967033262633
0.0154100236125193
0.0153937995264401
0.0153801331130646
0.0153785156049032
0.0153922967175421
0.0153906108224462
0.0153773106006497
0.015377107882754
0.0153903353370085
0.0154063863994687
0.0153903119034494
0.0153911669641127
0.0154078772259291
0.0154225950059196
0.015405332272066
0.0154054551271391
0.0154225701919107
0.015422171124602
0.0154052747800607
0.0154813220688818
0.0155116696468899
0.0155335700703872
0.0155005751573518
0.0155135660489311
0.0155477238597385
0.0155504123618257
0.015516594926968
0.0157315578534408
0.0158073823803485
0.0158805625637572
0.0157971340946995
0.015819003980396
0.0159034123354709
0.0159935218571289
0.0159320399319443
0.0159562401385914
0.0160196041916248
0.0160741573625561
0.0160605536287176
0.0160898890500433
0.0161036741789213
0.0166908007726349
0.0167246496935874
0.0167348206729429
0.0166898641304184
0.0170278311581282
0.016981315941173
0.0170799592522589
0.0171207510262566
0.0172156018146067
0.0171849969676245
0.0178708976829323
0.0179321081083722
0.0191720598996406
0.0189912351564072
0.0211430078499492
0.0701939477119831
0.060361309052124
0.0208281532629747
0.0212110851799302
0.0668860230804721
0.0694744986556548
0.0223566914414921
0.0214839227952928
0.0682160143975694
0.0663508586074762
0.0240676380683953
0.0262176126762392
0.070897535149518
0.0620922296102884
0.0267251171395775
0.025069650294818
0.0514054651860492
0.0468578092339277
0.0249577876984015
0.0246687910973463
0.0459047895164001
0.0492431464277384
0.0246587767195334
0.0248046637279203
0.0546109896573583
0.0616600901781997
0.0252071436275747
0.0234868805725032
0.05643194269181
0.0630604827723438
0.0243900853230973
0.0227931758864313
0.0608524319392074
0.049948165663693
0.0209523624826444
0.0209088681156331
0.05542232747446
0.0492074223741055
0.0187209214357648
0.0181267501189319
0.0465924832052568
0.0420788037837129
0.0176804337097958
0.0173193124226838
0.0381645642705547
0.0397628434835439
0.0179368873425751
0.0176385478273808
0.0358921238055044
0.0324591042954233
0.0175103085164441
0.0174479902871846
0.0295909689376177
0.0173862748536287
0.0173271013895582
0.017419288875224
0.016693218766353
0.0156553304987909
0.0156108597585976
0.0170078690517103
0.018261844012078
0.0309206106713136
0.0365740744654906
0.018209596172021
0.0179600783080852
0.0337004364590927
0.0308710660068212
0.0177299073626708
0.0177678728401738
0.0301762789651994
0.0278807513225042
0.0172905519674468
0.0178468345126383
0.0295052995328153
0.0273642065609451
0.0175192897595359
0.0172692398218589
0.025587628256561
0.0242204483558349
0.0171074569262034
0.0165801517176274
0.02330063961861
0.0245667856458906
0.0167622181231203
0.0170011960777068
0.0260903331322429
0.0279193206857623
0.0175150719781266
0.0173179054351591
0.0260019309815335
0.0244034043520424
0.0171741844380973
0.0171456175373885
0.016207114664114
0.0170365078051364
0.0246000965892137
0.023493436066931
0.01715860556552
0.0170494451069174
0.0172428599923447
0.0165301051617761
0.0174309782626961
0.0272055362175086
0.0288756976842266
0.0180124988078875
0.0173413682596714
0.0175982013330884
0.0180288778610026
0.032736882068967
0.0298994461425845
0.0175945523244664
0.0182106974995873
0.0320377421212655
0.0340132369733719
0.0191416724090963
0.0197439996885733
0.0310405364552253