/*--------------------------------*- C++ -*----------------------------------*\
| =========                 |                                                 |
| \\      /  F ield         | OpenFOAM: The Open Source CFD Toolbox           |
|  \\    /   O peration     | Version:  2312                                  |
|   \\  /    A nd           | Website:  www.openfoam.com                      |
|    \\/     M anipulation  |                                                 |
\*---------------------------------------------------------------------------*/
FoamFile
{
    version     2.0;
    format      ascii;
    arch        "LSB;label=32;scalar=64";
    class       volScalarField;
    location    "700";
    object      p;
}
// * * * * * * * * * * * * * * * * * * * * * * * * * * * * * * * * * * * * * //

dimensions      [0 2 -2 0 0 0 0];

internalField   nonuniform List<scalar> 
209453
(
83644.738115725
83659.8821238508
83681.5677243278
83658.7216431099
83644.2562967062
83632.7885991989
83622.8471713382
83610.5874499203
83615.441066885
83623.5103825602
83622.9654674467
83620.2618790104
83620.2670329545
83630.9380072024
83630.4638486612
83639.1046285508
83642.9467024448
83640.8663602032
83640.3864522765
83653.2140499402
83661.5853575121
83667.6015350385
83653.1298781183
83643.6571499551
83643.8994765591
83653.8910506687
83653.4636845354
83656.8559104848
83663.4527039982
83661.8233035671
83657.0405627703
83660.419217331
83661.6972449895
83660.7260720274
83659.518484523
83657.8813693854
83663.5450691864
83670.4998301835
83658.0479030854
83657.36750344
83671.0273924788
83658.1553817701
83652.9467150415
83658.2974041408
83677.5875567112
83619.3745011507
83626.996292894
83602.1138456846
83574.2287766294
83581.733571445
83598.1257889197
83594.9402464263
83570.6256946084
83660.2414154168
83668.6065460127
83628.3988950916
83618.5282918473
83612.5278256156
83612.7644049405
83613.2768959922
83612.9356814519
83611.9281487677
83613.3106125716
83607.9344875135
83607.8495924001
83601.9254611532
83600.3518196575
83582.6347943447
83598.0547867256
83615.4799628192
83611.4935574922
83630.2271088187
83667.1655553449
83661.7676538583
83641.6249186397
83620.7219484875
83624.585956114
83600.9163338669
83589.6325716412
83596.8275324997
83603.3176311507
83607.7234375634
83606.6678769041
83607.4208688882
83609.4307254234
83610.1739588953
83608.7116133424
83611.2631399726
83611.8389501816
83614.2599159293
83614.3292502103
83611.1200747241
83611.6153827159
83614.4581659064
83614.7401713116
83623.9913183834
83622.967117012
83632.9755283695
83632.5546117648
83643.5052310628
83644.5247596193
83655.2784064825
83654.3871345187
83666.4432340297
83666.7516914128
83663.0655753725
83662.8938312054
83675.208212798
83675.3648469941
83669.2591788609
83668.6054343248
83666.6689830294
83669.05453916
83669.6204376856
83667.1769092348
83655.9757860217
83665.6701349264
83666.8823357458
83670.9231615372
83688.4952589879
83673.9753792536
83673.8015471516
83682.6146380928
83680.8086337032
83676.9359702343
83677.1849206239
83678.6636959383
83681.1087350001
83680.8599554579
83679.0492063504
83678.8686532962
83677.3230239605
83677.3586912062
83674.8385491145
83673.023074832
83670.8090966338
83670.3682197841
83658.9325732573
83659.2060539297
83652.3212039398
83651.1599177923
83645.8453777063
83646.8154968746
83645.1212235441
83644.3072533838
83646.7649767093
83654.1642704579
83656.0053556479
83634.4328205582
83630.8604657883
83640.9284197153
83606.3327877794
83610.3125081492
83602.9585691323
83600.1457754138
83588.9810360156
83598.1124567661
83608.856759035
83617.3969973585
83637.5190317675
83611.8345981428
83604.2654563882
83622.2533833653
83609.1204060849
83605.4975873422
83606.9661418592
83608.1173495934
83611.4371943129
83609.3963047727
83603.2941384635
83601.2847613594
83603.5685054874
83603.0285857203
83603.1433530511
83601.5086765979
83602.645238005
83602.6749966907
83605.1080908942
83613.8297618751
83599.581032225
83597.7939025739
83608.1498462619
83602.3287382432
83599.9934560253
83600.4588909574
83601.1130019966
83602.8456937447
83602.5386774592
83605.1558589186
83605.2881379697
83607.5227293316
83607.5750142614
83608.1969018236
83608.1805997574
83608.6398290446
83608.5355391494
83605.5527074182
83605.7665855491
83605.9304629085
83605.7249990853
83606.0733549475
83606.2676806646
83606.9796280091
83606.8636219832
83607.9671103167
83608.2589597349
83608.3849082345
83608.1760407763
83614.0697936992
83613.9564448328
83623.4154266138
83624.1544853816
83631.2186329234
83631.504708794
83632.2869943544
83631.9224652682
83641.9510138958
83642.5533644812
83654.5391348668
83653.898542895
83668.4650916167
83668.7158499154
83686.3207691628
83685.977344206
83680.0846062036
83680.7844330844
83691.9721890252
83690.5262119036
83687.9232477154
83689.0925382099
83683.6036964053
83683.8285164681
83682.3138765604
83681.5944580023
83684.784122727
83684.6707082993
83692.0006689396
83692.181442371
83687.7598351621
83686.7694072455
83683.7694966638
83686.410699576
83684.349702158
83677.5677198194
83689.4454842496
83691.0426544726
83689.0841067246
83689.6438850637
83688.9320324941
83683.9514900892
83668.4858300833
83667.4855291482
83660.6870755453
83660.8334831499
83652.6740408643
83653.3418619699
83645.7954384167
83644.4258292676
83640.5032334651
83641.8371450464
83637.9383934111
83637.6724893664
83636.1023703817
83636.5500587533
83634.9574291288
83631.8704660156
83625.4028990086
83627.3487374544
83618.0936729742
83618.697571392
83606.7594377385
83597.6302294215
83602.2975712875
83604.8398973727
83603.1639584406
83601.6218051114
83602.9847798206
83602.3887844761
83601.445365107
83601.2713948851
83600.3030167445
83599.7340361342
83596.5867428846
83598.4150120101
83600.623069003
83592.580102281
83592.5189970989
83596.5058467959
83595.8587337454
83595.3048115516
83597.8375876674
83597.8081440901
83600.0944008393
83600.0917721276
83602.5079890238
83602.403775684
83604.4335052743
83604.6816391934
83601.8593400701
83601.7035862441
83602.9413841242
83603.166784712
83603.3470282117
83603.0959106997
83603.4108206247
83603.687563026
83605.5188258072
83605.2327752947
83610.4911555487
83610.3807813206
83619.9357722616
83620.8075909955
83627.5269087346
83627.7855759285
83630.2399962594
83629.9779059968
83640.6914407186
83641.2282107477
83642.1776423136
83641.6426159455
83654.7028813763
83655.3947121923
83671.9298894904
83671.6949558136
83692.9218269663
83693.005255167
83711.123730826
83710.2469309915
83705.6059687482
83706.5372256349
83700.5295862685
83699.7044491987
83695.8593635211
83696.7369826522
83707.5920644989
83707.477293777
83702.1498733507
83702.263213357
83697.6522485907
83697.039693814
83693.3725824868
83694.0768233911
83702.882653087
83702.2662402173
83699.4215754477
83699.9763460125
83696.1452955508
83693.8250292949
83691.5057051571
83695.0408698243
83702.9909393665
83703.463439756
83702.6421314458
83702.885843598
83693.4962372863
83698.2473332503
83702.1233852211
83702.8492281182
83714.423362127
83708.3368854968
83706.34509888
83706.9316460139
83710.1633702096
83708.8543580028
83712.9657212398
83712.5688271126
83705.3530234791
83708.3842048122
83705.9183352202
83698.7255979181
83701.0358494268
83706.1165500655
83703.9687738309
83702.3360375629
83699.6853688709
83696.6637262908
83699.8770502626
83688.9484302682
83705.5450655879
83699.2534777737
83683.9369224733
83673.849850634
83666.6742265991
83672.7546522119
83655.6062642691
83653.1745799367
83653.3241528405
83653.1642421689
83648.8058350963
83649.2954704039
83637.2110398685
83636.587422532
83635.3178639019
83637.0445903211
83635.7646206347
83633.9518372033
83632.0602335799
83631.2771353202
83635.2987055233
83629.6268321247
83629.7949581193
83634.3251966382
83626.4301600708
83625.6484464646
83619.4890873236
83603.7614299429
83610.2202982788
83613.142702979
83608.6378528031
83598.0183289422
83602.3532928311
83604.7708701118
83602.3549555711
83603.4809747561
83598.6027305731
83598.165121026
83600.472968101
83601.4159876644
83597.5374907077
83597.4793779276
83597.3764412716
83597.0646888508
83595.0440578241
83595.2464413563
83592.8343108581
83589.1879705613
83592.6216330343
83593.1827363031
83595.2721920516
83595.1917892662
83597.1968670986
83597.2636840367
83599.5509272038
83599.5735166751
83596.3459254544
83596.7737976179
83599.7376386614
83599.4353377591
83600.7592939804
83600.8980311633
83601.2187799212
83601.1576860871
83601.8017626626
83601.3397894604
83600.2085669479
83601.3891001345
83595.9387375184
83596.3637979072
83599.6812394819
83599.2569332913
83599.4572991217
83600.1338727937
83603.8577939558
83603.9640431711
83614.1971054514
83613.7098228723
83619.5446942495
83619.1455974774
83624.3123353955
83624.5557052497
83634.5864279457
83633.8805950195
83637.8874874944
83638.4798347876
83652.6833698033
83651.9857658573
83654.5219208388
83655.2253706404
83673.3996638551
83673.2103902522
83697.6849834886
83697.5337931123
83721.8811511847
83721.3056408953
83716.7592472059
83717.6453210105
83735.143874635
83735.1312940958
83727.7615390948
83727.7724529585
83720.381701791
83720.2923735627
83713.6735289913
83713.7362461201
83726.93695316
83727.3230937211
83719.5344662482
83719.1160343916
83713.7331695294
83713.9060978829
83707.6104185261
83707.7434942029
83718.1385049048
83718.1587744164
83711.9349521501
83712.1029216028
83707.8003348716
83707.808892626
83708.784220485
83705.099764597
83696.5188693331
83710.7557327239
83702.9887903985
83688.3982219723
83676.0383079475
83660.2101311859
83635.7534406776
83606.3792870428
83579.6248892987
83550.3159108066
83533.0670492852
83534.765253655
83565.3186450303
83566.474296441
83583.1350521135
83580.3707651513
83592.7442009044
83593.1108517059
83587.4541447497
83585.7194761432
83593.1522409379
83593.9451882185
83590.4695178773
83589.6922646992
83595.4931012346
83594.9726474995
83593.1892878798
83594.0534660762
83594.0633758825
83593.624232264
83589.7615599741
83590.6307926627
83589.6381351092
83584.2655591727
83586.4156661762
83590.0634197939
83591.0816947787
83592.1092698444
83593.8090153542
83584.5965547475
83590.5892194385
83591.8669490423
83594.5377418438
83594.3181751201
83592.9371873084
83593.1321034898
83593.18567408
83592.9537630185
83593.9046115127
83593.5681617542
83592.9880274677
83592.1211295619
83590.8587626599
83587.9923098981
83591.2558346696
83590.054902611
83588.4702713382
83586.9728643588
83599.4175009554
83594.0933899097
83591.5180312834
83594.9338676911
83596.0722509131
83598.2068174736
83596.1473089916
83600.1520967093
83600.8109934135
83611.7449421378
83643.395985912
83640.693483191
83603.955726709
83581.1036730473
83554.9817613025
83567.4280550132
83584.7748978897
83588.7914604133
83583.958584182
83601.3190677901
83597.550351068
83605.6191929496
83609.334485927
83639.5759310088
83620.403473466
83611.1053295906
83645.1385013863
83587.8531106134
83590.8416782494
83583.1817268076
83577.1502817516
83568.5055465832
83583.8756765931
83582.8295433574
83558.2771215479
83571.6106032012
83584.3613650422
83592.0975205094
83588.4316334664
83593.2956856258
83594.9844249287
83596.2063733689
83593.8118682488
83597.6268758036
83598.6242956648
83597.9168840191
83597.6407998685
83594.3875929182
83595.5492947377
83593.7668995182
83592.9042853357
83570.002184592
83584.3915544522
83591.9030199848
83601.5587137103
83600.5850477749
83586.3610252324
83593.4057750869
83605.4009194353
83613.4072391684
83626.0942171061
83613.1361342977
83612.1508610978
83613.0958901174
83611.4428771469
83607.3953257931
83608.3959947077
83614.8948740151
83614.2569255261
83621.735007724
83623.1319843429
83627.9762410719
83626.9080105825
83637.6771202021
83638.7048411444
83647.9489760819
83647.326343265
83665.1490145874
83665.4949542344
83671.3900301481
83671.0737508087
83697.2269542485
83697.0931984327
83726.867929837
83726.5913316704
83724.508838881
83724.9701526571
83747.5623326304
83748.0291633088
83742.6984261289
83742.4338528139
83763.0492660387
83763.8893140625
83754.0351824126
83753.2008292878
83744.3827560743
83744.9844375503
83735.3533140044
83734.808376085
83743.5704653315
83744.6601907726
83750.0150369193
83750.166358837
83744.9230211706
83744.805295641
83739.5808119475
83739.7555555712
83735.0090754419
83734.8324429675
83731.3274712936
83731.4483091015
83728.1401202138
83728.0407339928
83725.2061580375
83725.3243409834
83721.0773115516
83721.2537714683
83721.1583158438
83720.5668094061
83724.5656081597
83725.2632929704
83727.1937281785
83726.2101858808
83729.9291211053
83730.9492150126
83734.395336482
83733.2785630088
83740.2179933538
83741.0827076741
83745.4874698935
83743.5726942383
83759.0860731234
83758.8525714552
83755.7788147636
83754.2153776509
83752.7772351802
83749.9026946253
83742.4720797236
83738.0193919486
83731.4255356103
83716.6124927959
83695.1325850655
83668.0042083449
83630.8940372489
83588.6773646599
83558.7669044673
83541.9056394663
83525.5943884212
83510.238318229
83507.0916702529
83549.2400835515
83552.45604609
83575.0411070956
83572.3691035954
83565.518365945
83567.2794467549
83582.2795425676
83580.632264293
83577.8821677051
83578.5680082168
83587.8927134871
83587.9458184923
83586.5366562288
83586.8885346109
83587.1551068602
83585.4641582503
83583.8973668026
83587.7777355094
83590.1306245065
83587.6214819703
83585.0861510519
83587.515942109
83589.6480040417
83590.3412093485
83583.9178976714
83591.3499894815
83601.9638690851
83631.3488457668
83582.4865427622
83595.0235384533
83598.2434472954
83573.0397522269
83649.3225708594
83625.7245544016
83624.401444096
83644.9720192842
83632.3608565598
83627.1447700704
83620.3929269656
83619.9048963932
83615.396111513
83616.4847701901
83620.7299537281
83619.6622716874
83630.1983378352
83631.1372847033
83638.4945701184
83637.7629277565
83651.4783320312
83652.1665623026
83670.4510618025
83670.6148453017
83689.8277062214
83689.5780643512
83723.631806337
83724.1138463375
83726.2132372603
83726.1676775894
83752.2884806003
83753.4653249097
83752.7469142417
83751.8897076828
83777.0146982089
83778.4086684808
83771.6152818119
83770.4782138102
83785.9721364171
83787.2196584888
83795.4021968508
83795.6364303042
83789.8913136112
83789.6899671305
83783.2892992744
83783.5732273683
83777.1638491746
83776.8514903554
83772.699466602
83772.9039497964
83766.7608505378
83766.6178024888
83760.270211185
83760.500646301
83754.5206255406
83754.3173142808
83763.3209878877
83763.5433286753
83758.6128656165
83758.4399212597
83752.3082601338
83752.5219016987
83747.6832582829
83747.4754551466
83741.929417781
83742.2414098497
83738.1700230909
83737.9207727588
83733.3815081798
83733.6805607131
83730.0632714288
83729.9630748117
83727.3862288401
83727.190227543
83730.6707060317
83730.8575349528
83726.7742271334
83726.6817277456
83720.3217337335
83720.4737851573
83717.6311812453
83718.3198537761
83716.639522363
83715.6297869115
83715.0532353257
83715.4544559426
83713.7874786696
83716.6721801626
83722.2604567037
83720.2160265376
83714.1388485339
83714.0312942199
83697.3801246248
83704.6769203226
83716.983942895
83717.4185021454
83713.9082517888
83712.2345113568
83700.6898351899
83703.7851384219
83695.7110351394
83691.9522661993
83678.3761173294
83684.389700541
83669.235784801
83666.2395372275
83649.9350715193
83648.2454626182
83632.8108327077
83631.607512755
83635.8965285146
83634.624360727
83637.3548249715
83637.4599744768
83619.9807854599
83619.9559942193
83622.4443847504
83622.5452957901
83622.8077581809
83622.8482628643
83624.4917870179
83624.177340622
83618.6811541949
83620.9608593082
83632.9796060225
83626.1866903958
83620.8711949084
83630.7947189716
83615.1146516216
83612.2323137844
83621.2754473345
83622.7980539432
83618.1474457276
83612.1099079117
83607.5919844023
83618.7243049595
83588.1238199795
83593.1936645177
83601.9217944469
83605.1417902705
83599.6437961658
83593.9153670442
83588.0734558712
83583.0013403371
83577.4773344671
83577.8729372947
83577.1551976542
83580.8310963273
83583.0993643025
83574.057493015
83585.7361478338
83583.7799165349
83588.8738209793
83594.3812932818
83593.39054395
83593.5692303144
83598.5650795783
83595.3514900358
83610.8862246569
83608.2237111724
83614.819509133
83628.6122509453
83630.1936935324
83615.893120803
83615.9678724391
83617.0018193403
83620.5618977043
83621.8688450191
83610.1050920924
83611.1564171343
83611.0317201772
83608.3171827315
83620.4257018057
83622.0067453226
83621.3465733313
83620.1478434989
83647.063658464
83647.0722224946
83665.599362161
83666.1037664283
83682.6496543764
83681.7046037399
83701.4130002286
83702.2169785994
83713.8217604334
83713.0341524743
83737.2800560422
83739.2374040499
83749.9692372258
83748.4996424599
83774.0952505891
83775.9133217976
83780.2357354126
83778.5167690496
83799.5370297783
83801.0043052276
83809.7856242797
83809.9308564115
83807.6882705624
83807.4558440216
83803.0571747107
83803.378142733
83798.5724221441
83798.1851594084
83810.4265061984
83810.3905751395
83806.696929847
83806.7798459392
83800.1223428003
83800.10018762
83794.6416467488
83794.5791495198
83787.5543307689
83787.7216678606
83782.7314534418
83782.631658759
83775.6202313456
83775.7434452699
83770.1656090885
83769.9760733079
83778.2445753475
83778.3669051763
83771.6289904715
83771.3559382443
83766.0295807217
83766.2257956605
83759.9680556986
83759.6403068905
83754.3917163357
83754.604258708
83748.90475294
83748.5616477849
83743.8958503137
83744.215549535
83739.4237998878
83739.0446114637
83734.8853964944
83734.8824678955
83739.8058472382
83739.7659601551
83736.5228681913
83736.3792013394
83740.4114500708
83740.5103366456
83736.634133816
83736.7067320336
83730.8418558134
83730.3352906482
83725.837988803
83727.1517793537
83726.0576611189
83725.2319721542
83725.166093736
83724.7759133111
83731.3222995143
83730.1936228809
83731.4379750178
83732.9348581456
83735.479442476
83734.3454464663
83741.7068122989
83742.7092972827
83739.1454387388
83737.0876284318
83735.5871868941
83737.5149036784
83732.7553521177
83732.3866897571
83726.4798611883
83726.1934093255
83721.5195356497
83721.7092293401
83729.9851998857
83728.5236351543
83725.914162598
83730.6929454008
83724.0014423386
83719.7093324752
83709.2149902437
83712.6372073072
83699.4483229661
83695.2454337155
83682.0066994722
83688.6204653958
83673.6312561523
83667.4873240307
83654.6926875366
83664.536629926
83649.0066846119
83650.3378246933
83616.0772809204
83616.876078954
83585.6012706556
83584.4553275914
83603.6892359814
83604.5456581885
83614.0796234608
83614.2160722904
83599.5494470855
83599.3387611886
83605.4109718662
83607.1986097783
83612.087320329
83611.5816754922
83613.4575428162
83614.0388703827
83603.5162681461
83599.1429474313
83616.6838982303
83612.7418368054
83605.2708372879
83615.6575416759
83578.6300768035
83592.8453746083
83578.5299579917
83572.5801373553
83559.1471771283
83556.0676127549
83536.780319915
83543.163504774
83493.9504903463
83497.2373507152
83462.6725693847
83461.0628201412
83436.7112287896
83436.1181829545
83404.7452995937
83410.9406721395
83486.169275825
83486.9909285264
83539.3520446663
83536.6581012066
83533.2302424896
83531.8005376143
83561.8034298023
83561.3534647184
83552.8034525008
83558.1384807231
83569.4705121021
83557.5043556419
83578.0782758489
83578.8214527487
83570.4014303238
83551.7910243588
83569.6938495959
83569.9330879183
83573.0856938615
83577.0562392607
83587.5151911436
83582.2768917384
83589.2698010151
83594.5677359872
83596.877414697
83594.2234377734
83600.1285602511
83608.0793145064
83612.1661157926
83603.5068041326
83594.4353030328
83591.8226807026
83598.9780440284
83602.3243623642
83605.5012365352
83602.6752051594
83593.905256088
83596.3602268825
83591.7895112502
83587.3994039939
83581.0562494281
83586.2678400226
83578.1821089987
83575.9320065082
83582.2978391796
83583.9178048167
83585.8976611143
83584.4639847714
83588.7941544277
83589.5825883724
83599.5560284115
83598.1641912673
83604.0942951461
83605.1161994465
83626.4616673848
83626.3243402255
83644.0072630168
83643.868321533
83645.2462993384
83645.9287427826
83672.0776574424
83671.2162835558
83697.2496016551
83699.2694070108
83721.533775735
83719.4999241534
83738.5950622074
83740.5448730716
83763.6975114372
83761.8740016353
83783.6988752555
83784.8906227085
83790.0543659967
83789.9787006871
83799.8687925386
83799.8294634888
83804.5452625033
83804.7751422952
83807.3535324367
83807.0915054436
83819.226151777
83818.7274071143
83820.8034786627
83821.2352949685
83818.7059486384
83818.4613613871
83815.6351911545
83815.8500894716
83825.3293602801
83824.7369672756
83819.559523998
83819.9034091508
83815.9203772901
83815.6459497585
83809.2391450762
83809.3892761123
83803.6487585503
83803.592890074
83796.6043411809
83796.5430466104
83791.2027525929
83791.2890480532
83784.3547066633
83784.1770204893
83791.8242123423
83791.8195529234
83785.6240433293
83785.6378325166
83778.9085134911
83778.9713293369
83773.1796026812
83773.1645014832
83766.7843554268
83766.9120003986
83761.0287181371
83760.97592674
83755.0007982214
83755.1514175165
83749.8051802883
83749.6250875913
83744.2645110823
83744.6495579278
83750.1246463279
83749.8462359747
83744.9819267757
83744.9218581214
83750.2524403855
83750.2307371371
83746.7144892167
83746.5363147173
83750.6980384786
83750.7981848546
83746.8123644833
83746.8608618112
83740.7030468505
83740.1808909877
83748.3194513889
83748.8719703323
83755.7247053688
83755.2579776347
83748.036837396
83748.9861810511
83744.7878456322
83742.4975339762
83740.9173630846
83743.1657770059
83738.1998985054
83737.218905504
83732.6985567797
83732.5073428249
83727.0456817065
83727.7360189952
83717.1021658529
83717.3016734126
83711.5592148236
83716.0964076863
83711.6288710579
83704.6221174613
83706.3970453794
83705.5417816183
83694.3477498325
83693.3498813545
83679.2231883001
83688.326020868
83666.379527677
83667.2817543808
83668.0372214386
83666.96947584
83650.0073728219
83660.0893424531
83635.8820208323
83632.7654410724
83593.6681483757
83594.5711779611
83555.6998237948
83557.484070682
83531.8779032637
83529.1903106781
83560.8900754313
83562.0686935535
83584.5680147597
83584.2192743317
83560.3015378208
83561.0961926217
83582.6071356127
83581.0046195815
83591.1320548993
83585.7721481342
83601.3872248839
83600.3061152881
83590.9189979132
83593.3714494661
83574.9914188521
83579.7252304667
83570.1363970112
83578.2874910181
83555.1678370375
83551.1152834261
83518.8027815434
83515.8924023626
83493.3047367045
83490.8205065626
83469.6998779717
83473.9953415339
83418.8583744104
83420.9706398895
83377.3988102774
83378.5596464121
83353.1316278333
83343.811914228
83312.2281854665
83329.2551723793
83322.4491664382
83303.5117617479
83364.4065401249
83361.204921295
83463.1578015697
83464.5721770316
83468.5576075879
83462.8758103724
83454.7682336151
83459.15964316
83501.9647038181
83504.1220188549
83545.1692680455
83534.7141393779
83542.568583475
83540.6535139121
83557.4517110124
83549.0780677589
83557.5329080287
83557.2114427932
83555.8731966307
83551.1387458154
83540.3023957215
83546.831394692
83544.5503948623
83546.3759002961
83558.1122198246
83557.6959069508
83572.6967826054
83569.8978647219
83576.6092654691
83578.011584922
83589.9639570684
83586.3375179514
83582.7621051102
83568.9915969529
83556.7359074644
83570.616612374
83572.0596968282
83572.2194746886
83561.9041982937
83560.7707922503
83563.9116166744
83563.8989845147
83566.7142489263
83567.1681570187
83569.9774283217
83568.9289646019
83580.2958967815
83581.0170817155
83596.3964910365
83596.1310473396
83619.786218824
83619.7173838445
83611.5842732938
83611.7052462249
83643.7391896362
83643.3320579386
83675.3797103714
83676.4076008231
83712.1152051461
83710.5728193175
83725.289866115
83725.1152605206
83721.4404841811
83721.2612592724
83742.9073208796
83743.3969194754
83759.6527372399
83759.4509842157
83776.4075762864
83776.6378181868
83781.9754896081
83780.3845967505
83794.9028693224
83796.0747183613
83808.8557672824
83807.7514527334
83814.7697211997
83815.4065260159
83821.6843264941
83819.8346513173
83825.8221062945
83827.2475317839
83830.1209629487
83829.0571541712
83827.4054223226
83828.1741456687
83832.7408167452
83831.6496572997
83829.6763025553
83830.5381728145
83825.9158996537
83825.3334343036
83821.7016793241
83822.1779691394
83816.127629579
83815.8347044104
83810.4370232887
83810.6813340926
83804.0709466235
83803.9447299513
83798.4850854598
83798.5776552245
83804.6998864298
83804.528071979
83798.2825890721
83798.3605972722
83792.3787980367
83792.3137307944
83785.8987408053
83785.9088431447
83779.8765773662
83779.891617931
83773.5408883278
83773.4808893115
83767.3925138729
83767.4571816129
83761.424247831
83761.2926186737
83755.5611219015
83755.6808590784
83761.4157278812
83761.2721292892
83755.2416174036
83755.5734312794
83760.9803767058
83760.738765185
83755.5623369314
83755.4723555281
83760.6292050002
83760.6249208117
83756.8522416479
83756.5919239166
83760.3432889759
83760.5031247136
83755.9887968569
83755.8227279415
83763.509959705
83763.9036661129
83770.0893898624
83769.4788045529
83761.0453818849
83760.6691856169
83752.7665880324
83753.7188338789
83749.0334482275
83746.7143582909
83744.932519327
83747.2623631212
83742.0703794609
83740.6168623858
83735.1417369697
83735.6794582014
83729.99697215
83730.0198176615
83722.5897646577
83721.3795667281
83712.818727778
83714.5860943508
83702.6778054768
83703.2230613557
83691.2226668541
83688.9900461017
83693.5903035507
83691.8694272973
83680.2282734699
83680.6822211375
83678.7969598978
83679.714162745
83676.8548357864
83675.9773073595
83677.9400102804
83675.3892619965
83660.0274403951
83665.6826476733
83642.8125469154
83647.7944111713
83611.984496024
83609.5028067995
83562.9397494082
83561.5760705049
83515.8701035936
83519.5412340182
83492.4531761858
83487.6636723432
83452.1790578087
83456.6009384388
83499.0002065395
83496.9725637023
83532.3025000988
83533.2753469453
83506.4860997515
83505.3738628217
83534.6123388867
83535.2280530569
83565.3215627289
83562.1422189709
83579.2932540853
83584.6000770279
83573.0320648952
83559.1543919864
83530.2293972422
83486.3257370434
83441.1036676572
83389.3237272941
83345.7214658286
83322.5235652852
83320.5776401476
83304.2744590411
83302.0107511583
83358.4832290056
83356.3304874498
83418.3106092044
83415.9713224037
83405.9392892846
83404.8550607832
83398.0414254166
83398.9929860187
83391.8974639685
83390.8300750736
83451.4209310456
83453.3088570147
83501.6441406196
83502.121984374
83541.0837346187
83535.6747739086
83535.0903595756
83536.0671879088
83505.0707442111
83502.4997111142
83455.9209053769
83454.9707542807
83452.4526480042
83454.2177027948
83499.0416022014
83500.2517509914
83539.3001587172
83532.0734364584
83532.3320619744
83533.8302946777
83508.844656617
83515.010130956
83535.1183855864
83535.9643006348
83504.1852338743
83464.945728206
83466.5582192381
83428.0527133588
83434.3910865353
83368.9244003381
83371.7357359336
83414.5936689186
83352.0203055207
83345.9507519446
83346.4085543015
83331.7330290052
83330.0215463639
83314.0901926747
83316.4937231502
83306.5684493621
83305.4838222907
83314.6638897586
83315.0663601135
83312.6678634847
83309.7045951228
83308.7326972809
83314.5620642603
83309.8320795937
83306.7272008821
83306.1683850251
83311.9875029136
83286.5922436356
83295.4419497835
83295.8564988042
83283.4340073672
83293.5825463493
83298.2902320817
83304.1264155681
83303.1845801186
83311.4906275862
83311.6152978851
83324.1254674618
83324.2182024944
83328.2134793254
83332.4367670534
83333.7695435054
83329.8888152883
83332.603971244
83334.4845424134
83364.4999293642
83365.2048140663
83374.1111834769
83373.7008513134
83385.0893353516
83385.2700378619
83400.1695634753
83399.633065009
83415.6393631233
83416.4068246231
83433.154954128
83432.1270446477
83447.6462523117
83448.8621136817
83462.9133093477
83461.6136286343
83472.8283941151
83473.9984791692
83483.5720113414
83482.8788300441
83491.8475975494
83491.6448951177
83504.8429191254
83505.8535549216
83527.2104810542
83525.2286775013
83564.7006615525
83566.8698401366
83626.1447689656
83625.3013121319
83695.2300312101
83694.6010836554
83752.7778468048
83754.4454765364
83787.2687215756
83785.461723739
83801.3190656766
83802.8568229624
83810.15662516
83808.6751333459
83813.7348894092
83815.2550504448
83817.7526328421
83816.3927703135
83818.6790180877
83819.8513210782
83819.5599621974
83818.61085244
83817.737780171
83818.5454810257
83815.6587297828
83815.1501682721
83812.1664971061
83812.5416774184
83807.9910861669
83807.691908021
83802.8992851268
83803.1076564062
83797.4765872716
83797.386243483
83791.6645406243
83791.7099711789
83785.5206910661
83785.4993512956
83779.3092693885
83779.2722020454
83772.9917177473
83773.0778471876
83766.9753221737
83766.8955222332
83772.2373385768
83772.3029098398
83766.1797680431
83765.9023227826
83771.0386420041
83771.2247959939
83765.499143384
83765.6296071977
83770.26665444
83770.2148213115
83765.8008533307
83766.1256050097
83769.15068711
83768.9332097441
83773.6775746346
83774.0199718386
83776.121880985
83775.8702351735
83779.4872480754
83779.8441033092
83780.6259504584
83780.3111845167
83772.9944531584
83773.8822671758
83764.0057116729
83764.2082414542
83756.5642677547
83755.7654959451
83749.3180575166
83751.0783301603
83748.6957819684
83747.2735021379
83743.3434049638
83744.4539141406
83737.7885464393
83737.4154763656
83731.5955624155
83731.964175121
83723.0968447975
83723.4191252086
83712.672961225
83712.5351974623
83702.9582273339
83701.8683433649
83689.3611911336
83690.4793298605
83688.9111998666
83688.8849873577
83684.9735217629
83684.0241836514
83667.6876028104
83669.6098701204
83662.93339696
83659.2659510732
83644.2513651387
83647.7983175546
83644.9417851311
83645.7472156024
83625.048792536
83621.8864596983
83593.9449129253
83600.3244737952
83560.1596573411
83554.1892009733
83517.3621430903
83510.2980283861
83459.5530367148
83466.0629417484
83442.2290806405
83434.5403786903
83398.2968947164
83405.9646761651
83380.0627254108
83374.4467386191
83424.6936776696
83428.3490317277
83469.7234476959
83467.719605214
83450.4291715102
83449.1176469157
83415.6763092821
83410.3274303501
83385.2562637147
83391.5482135309
83328.1078351764
83324.9429073264