/*--------------------------------*- C++ -*----------------------------------*\
| =========                 |                                                 |
| \\      /  F ield         | OpenFOAM: The Open Source CFD Toolbox           |
|  \\    /   O peration     | Version:  2312                                  |
|   \\  /    A nd           | Website:  www.openfoam.com                      |
|    \\/     M anipulation  |                                                 |
\*---------------------------------------------------------------------------*/
FoamFile
{
    version     2.0;
    format      ascii;
    arch        "LSB;label=32;scalar=64";
    class       volScalarField;
    location    "800";
    object      k;
}
// * * * * * * * * * * * * * * * * * * * * * * * * * * * * * * * * * * * * * //

dimensions      [0 2 -2 0 0 0 0];

internalField   nonuniform List<scalar> 
162506
(
0.0150874387283126
0.01509141522331
0.0162984836621198
0.0164061579406593
0.0167317963341103
0.016572846103259
0.0151721388238303
0.0151278935901007
0.0164311376278206
0.0158106851218261
0.0153535826323157
0.0150314500041534
0.0150685530481648
0.0150490514652129
0.0150132791100995
0.0150111133747091
0.0153245830250901
0.0157351452982388
0.0150449005502849
0.0150920089550625
0.0150561205646302
0.0153412033415397
0.0157499525238953
0.015800457672331
0.0153758461670738
0.0153291032458844
0.0158118069881804
0.0150103037464042
0.0157516777309453
0.01530927476993
0.0150027636411619
0.0150029872303637
0.0150132941035863
0.0150007570784841
0.0149985329156508
0.0149980731668576
0.0153027721174419
0.0157509026024129
0.0150006770279055
0.0150757591378306
0.0162854798967253
0.0162868554075215
0.0150717881669505
0.0151160526727179
0.0169421919416798
0.0169512058188756
0.0151187237044594
0.0152570879853195
0.0173879873339974
0.017721076552574
0.0171052308034835
0.0178912145490983
0.0188732836955338
0.0183098449446947
0.0153536572209214
0.0153030179738656
0.0179965996029723
0.0171592106599548
0.0152291555361946
0.0153346207133736
0.0172187170341263
0.0164794370856665
0.0151769321743885
0.0150524432377165
0.015016364503981
0.01534840578451
0.0158681894893477
0.0158296424641946
0.015300863191158
0.0150080528900108
0.0150285240924433
0.0150161661218643
0.0150051480001584
0.0150106213959217
0.0150288322818625
0.0150320604569902
0.0150755639189926
0.0150740589409404
0.0151496109469122
0.016418690908618
0.0164364999402302
0.015088552479042
0.0150133175730395
0.0150029099971198
0.0152981225835194
0.01582594888164
0.0159353881434203
0.0153536403100217
0.0150018573723391
0.0150105523657721
0.0150023448652078
0.0150017027280124
0.0150002013927952
0.0150016833635999
0.0150056203651692
0.0150010577537898
0.014998992747756
0.0149990692505193
0.0149995962659627
0.0149992864879687
0.0149990328298087
0.0150012842815334
0.0150010917758988
0.0157505479377138
0.015302601638044
0.0149986571483331
0.0150033823583314
0.0153088191121189
0.0157507504359094
0.015010938674775
0.0150707153277734
0.0162848839536806
0.0162846429402383
0.0150740089241918
0.0151145659950959
0.0169491022940044
0.0169507420690379
0.0151214043010751
0.0151609695944295
0.0177427044461984
0.0177086235837516
0.015160960141515
0.0151559671238487
0.0176894535076142
0.0185155138115341
0.0154778313500011
0.0157733301189391
0.0193271333074455
0.0201357550286177
0.0187404946361487
0.0197544454982151
0.0212819345654798
0.0206036876805182
0.0166404116612674
0.0160702921470712
0.0201731906186977
0.0189447494106638
0.0155807375319567
0.0154594906479357
0.0192316987825976
0.018148029729156
0.0153564319367635
0.0153190903796089
0.0180739332163196
0.0171542761940229
0.0152749502188892
0.015143808134238
0.0171857341837175
0.0174783207703098
0.0153348795896166
0.0151510215769641
0.0166207398588766
0.0166981204758679
0.0151203420082276
0.0150080617773217
0.0150015649884966
0.0153820114853898
0.0159814352981891
0.0159210453403968
0.0153476059815795
0.0149991337581389
0.0150044508328528
0.0149999914869847
0.0149998028847131
0.0149990191587844
0.0149973535247547
0.01499813660693
0.0149992990664506
0.0150004421697105
0.0150013914683735
0.0150060227317475
0.015001510915672
0.0150035945794642
0.015014025778729
0.0150497365582739
0.0150141275623748
0.0150119427001765
0.0153238174768382
0.0157333457049755
0.0150455771079375
0.015088242084624
0.0162948719307158
0.016944724018986
0.0151167638236496
0.0151124776557865
0.0169381686508617
0.0177001621244475
0.0151561164466402
0.0151529511346982
0.0177391648465685
0.0186637969283453
0.0153745904712138
0.0153852894191216
0.0186716598191828
0.0185900416802933
0.0154163267504296
0.0160095350297511
0.0197382752531681
0.0195753829351
0.0160847788854509
0.0162791419960646
0.0199770420020257
0.0209296010463287
0.0172501499132684
0.0174642211922077
0.0213908290399488
0.0215300079884151
0.017273313987429
0.01657556825939
0.0205513289070279
0.0214114952690065
0.0167620393866329
0.017359795604511
0.0228682548450376
0.0248019831209808
0.0179857592193211
0.0186080007727058
0.0246889051453548
0.0251687676434711
0.0290171115237467
0.0266328520302229
0.0192640067165351
0.0190594690180102
0.0264465021001743
0.0258198051954109
0.0188988999050013
0.0186104268299909
0.0233789604311577
0.0263198562933001
0.0251223704638058
0.0234563944727516
0.0178164137509295
0.0218783049752933
0.0241517727759747
0.0228177359154743
0.0208574334632695
0.0173613570111299
0.0224802603786391
0.0223282812780103
0.0170298818982161
0.0162415462234633
0.022060412028245
0.0205338540661055
0.0157261957842311
0.015475125806533
0.0204120809393782
0.0191503108119709
0.0153652787480125
0.0152162197107074
0.019147906464489
0.0180896397213739
0.0151791006667745
0.0154001275798776
0.0185889706008164
0.0186843078325967
0.0154149031358211
0.015332320280999
0.0175659475339913
0.0173564397220806
0.01511408151094
0.0150459163722428
0.016589093906248
0.0165844093094337
0.0150512517276185
0.0150065870325255
0.0159179876174825
0.0153470335870835
0.0150000941384584
0.0150001574607971
0.0150015700278475
0.0150065623702329
0.0150010101406763
0.0150022384081169
0.0150047768709689
0.0159757601962056
0.0153804536167388
0.0153517583277075
0.0150004192275547
0.0150096510081687
0.0159306628910609
0.0166115380472433
0.0151527105898966
0.0150890426028988
0.0164278974221192
0.0164136156295985
0.015151003185612
0.0150280513929844
0.015008607226048
0.0152998121153608
0.015827602797624
0.0158213280418746
0.0152968923335228
0.0150033698172269
0.0150136354917586
0.0158641266601122
0.015051762169755
0.0150157872620621
0.0153471398035839
0.0153527039824086
0.0150309246395004
0.0150675199346444
0.0157898276710143
0.0164049932141795
0.0151417075764665
0.0152427099446445
0.0164323689749274
0.0166318911373971
0.0164490097318035
0.0157543624532776
0.015331014504514
0.0150325459043019
0.0150695411469477
0.0157621255785278
0.0153310696174278
0.015375173111514
0.0157680018030109
0.017258786411948
0.0176110762835817
0.0171293875028076
0.0153430285681941
0.0152482992424804
0.0171287189345574
0.0179579909189424
0.0153269016797621
0.0154393860454294
0.0179093211194904
0.0187463955469891
0.0181667070181467
0.0192067930617183
0.0199514271741989
0.0187478853109704
0.0159052044493292
0.0154942645047221
0.0184965195533005
0.0185731577264144
0.0154064501586544
0.0159948123304559
0.0196867458519412
0.0198426152202128
0.0159388591178393
0.0159495993868987
0.0198637945993381
0.0217735370159867
0.0168017905344267
0.0174223877381605
0.0232503711848703
0.0255984735051911
0.0178681408442952
0.0177951127885791
0.0249949037851182
0.0277449845280045
0.019201592815124
0.0193824957008861
0.0272003334828272
0.026526788285483
0.0195651022409281
0.0193423979855875
0.0284009382524982
0.0325051176213085
0.0274062280138199
0.0297490808582893
0.0357774162955235
0.0303550487749214
0.0198056107582857
0.0193351871899115
0.0298747545299721
0.0279418407265755
0.0192183773612085
0.0190448029850962
0.0267173591419858
0.0253637136807646
0.0185726925257249
0.0180212348573141
0.0236291073866488
0.0232633776921344
0.0173841163086809
0.0172256830565855
0.024484916416863
0.0239530306743087
0.0168207624822369
0.0158353005180054
0.0219187622677793
0.0218219296515422
0.0155143128205093
0.0152821755937031
0.0203790150601789
0.0215500853306053
0.0155260869118383
0.0154627311483637
0.0199338654128816
0.02003284502872
0.0154888513114597
0.015222098276925
0.0193160352404828
0.0182610224756524
0.0151697822274561
0.0151752812647187
0.0182537683885183
0.017351051235754
0.0151195099967983
0.0153352807748404
0.0175537192293054
0.016688842560112
0.0151252792429312
0.0150475505225633
0.0150072241974113
0.0150113891630925
0.0150051960288547
0.0150040789785772
0.0150039368018434
0.0150020935862479
0.015044374172581
0.015023054768849
0.0150544981938062
0.015335818100181
0.0174643464809576
0.0171728951268037
0.0151411086006734
0.0152759617633565
0.0171447698541646
0.0172068340992259
0.0153372618210131
0.0153622057111507
0.0181292449324286
0.0192001050413872
0.0154766003632925
0.015620468185335
0.0189001016635317
0.0201119885543208
0.0161503896321568
0.0167160159661184
0.0197597984102581
0.0210513100044357
0.020436222163173
0.0222383496064598
0.0225475840167345
0.0208759014027049
0.0174712606473782
0.0173139392051694
0.0208576382876309
0.0199129040630185
0.0162678335050982
0.016569953872907
0.0204830378308509
0.021362247739918
0.0173856456931494
0.0175366714591944
0.0212831165585739
0.0218425259606413
0.0178843868417103
0.023364199583216
0.0238260578109067
0.0259616603915378
0.0233869031410206
0.0188735994810829
0.0249825259693108
0.0259601065182115
0.0193759805395249
0.0197052820671034
0.0266003365291656
0.0262508796259441
0.0277918386285915
0.0250352025034294
0.0199078683816009
0.0191453574088144
0.0244450417448283
0.024651343089251
0.0184989346715724
0.0180747583480453
0.0248510940428142
0.025500445967964
0.0179942074186798
0.0178872763249332
0.0256343218827331
0.025712599218386
0.0178795984358112
0.0194849831851525
0.0287973046582955
0.0285717023837873
0.0194428133867429
0.0207608530796193
0.0306558775838219
0.0297620217426751
0.0204688720930516
0.0203391296727294
0.0296188396081827
0.0288375332447432
0.0203687017031044
0.019948236562186
0.0284544625923443
0.0294752007507767
0.0204636073757805
0.0211952122606215
0.0333766016639507
0.0325849565655157
0.0397632071872083
0.0323805962859974
0.0201646464051215
0.0194863863294566
0.0318904558629535
0.0312186469347451
0.0192937753087334
0.0189951968233767
0.0294605126022001
0.0273259945919207
0.0188778764645562
0.0179839796030772
0.0261949458868108
0.0248832814691983
0.0176793349056961
0.0168145959675734
0.0160754495089578
0.0154545646230249
0.0155063784768035
0.0157025553904663
0.0164471706285417
0.024043830500724
0.0256185065198705
0.0165368815343881
0.0164867585574557
0.0252939204947016
0.0248925481197033
0.0166458639657371
0.0166027069979447
0.0246070439533109
0.0252966384563851
0.0175138439192653
0.0174567040683296
0.0255175044184721
0.0259255790835962
0.0174758003663064
0.0180518828784869
0.0264804659135488
0.0260117168197891
0.0181220350210318
0.0173172988579164
0.0246177434858402
0.0167209479997999
0.01857802045448
0.0276980679585602
0.0295081391775472
0.0195213432015012
0.019033878253166
0.0285417037471452
0.0273943238148591
0.0177885563222612
0.0167503197282246
0.0282874061653539
0.0307794833671326
0.0163268876126242
0.0162197335157155
0.0281167818753493
0.0256235550726692
0.0160800018489565
0.0156150984777419
0.0234648199708546
0.0235578174730865
0.0156432325743692
0.0155555479679745
0.0216481125581681
0.0205352018641891
0.0152732085097432
0.0152784627256509
0.0205195995950055
0.0193056353306816
0.0152277460575861
0.0154878162868626
0.0199975298843207
0.018664479952217
0.0154168632511783
0.0153956834795283
0.0185668863189976
0.0180698098679454
0.0151683088585693
0.0153179698864829
0.0180564567289234
0.0191197183525269
0.0153593144236464
0.0154570017346077
0.020361659085594
0.020482387309083
0.0158014843805077
0.0163480825991258
0.0220342957558231
0.0222552122350243
0.0171528348700697
0.0181996815941772
0.0236994257005804
0.0251536125614087
0.019097708647521
0.0196243627485667
0.0275205624222187
0.0282753886128282
0.0199960698991246
0.0198438625968278
0.0271623656565498
0.0282943836920494
0.0208002785631039
0.0208306473329947
0.028929437780009
0.0291535261227477
0.020265858299457
0.0207800364426786
0.0308082646235891
0.0320602554769935
0.0371264948566489
0.0323587707819983
0.0225349348213912
0.0228270630792528
0.0320680052966974
0.0307445598784675
0.0223626840446642
0.0213941089655321
0.02918617240453
0.0332556278679997
0.0296505263251935
0.0282649494225593
0.0308630919443087
0.0274103060456016
0.021304072015456
0.020822238547594
0.0272706655781101
0.0273264800110547
0.0200891799352347
0.0195525317201456
0.0277482234436731
0.0285465589025695
0.0195767671404529
0.0194988016010453
0.0287407882273443
0.0309651046523298
0.02093319277362
0.0209621827218194
0.0310379830364315
0.0309646193817952
0.0208574320614634
0.020855235076395
0.0307303878956984
0.0339660474260034
0.0228337624679833
0.022694262411094
0.0338458151043365
0.0328953648472478
0.0223014741193478
0.0220336768494348
0.0325181811863912
0.0313467040093417
0.0214772506728961
0.0205906626700656
0.0304853463504372
0.0325567845364449
0.0211747020096952
0.0214196595388379
0.0352182070062902
0.0380346943888357
0.0216604929831736
0.0215245340682718
0.0383282062107356
0.0356883978321866
0.0438686510179207
0.0344401078613915
0.0204835260525807
0.0196442530800434
0.0340498368677973
0.0338503690855152
0.0194459238883027
0.0190918677201146
0.0317738040389106
0.0301324965797053
0.0184918434234745
0.0182069325913228
0.028104651713564
0.0171912429320458
0.0164980154439765
0.0162090146725513
0.0162999101610726
0.0157436031473551
0.0156687924013373
0.0156028277703904
0.0155606437501039
0.0153306421083398
0.0152787619415118
0.0155795911688873
0.0250896636966675
0.0234639867378141
0.0154392915750755
0.0153375024174347
0.0219274084233913
0.0219030723006206
0.0153350700675677
0.0156238623638058
0.0234459363089848
0.0215816688837363
0.0155561037488751
0.0154936019047108
0.0214793792005645
0.0203315710198858
0.015252109206688
0.0155951644008801
0.0217356288486418
0.0218274374162843
0.0159746223726609
0.0170583819376602
0.0240196311081768
0.0245795782016157
0.0176643846165582
0.0174956817308028
0.0232195936044635
0.025005355622495
0.0179216898985768
0.018767219430565
0.0257188089104856
0.0283886781293364
0.0189356807697577
0.020088190910039
0.0311462634846312
0.0320967249352715
0.0206815568434488
0.0228927124114262
0.0349041023633132
0.0399954346717975
0.0334742444972598
0.0353286134841405
0.0444295067485152
0.0387622356654251
0.0232288987122461
0.0240057010683129
0.0387734117076247
0.0359852237945256
0.024758469057227
0.0245317932362665
0.0357362263722206
0.0371855644921811
0.0247768978021239
0.0255304949979747
0.0378643937070784
0.0380496562658041
0.0252069584619695
0.0254501187164677
0.0384534625749184
0.0400765200138583
0.0257832524620123
0.0257910322301008
0.0403103051675841
0.0409340833756278
0.0258388053341322
0.0258236981464095
0.0408646283864408
0.040623928471648
0.025821479768823
0.025660093835227
0.0402717761767673
0.0395158171369675
0.0254676857985797
0.0251895991756292
0.0391904878304257
0.0385851861393844
0.0249061465040018
0.0237741953282524
0.037541833674853
0.0347206326168275
0.0223599898987277
0.0227076379955206
0.0390267556798468
0.0439813907993746
0.0230638325009413
0.0234927373626716
0.0506314847527292
0.0411918202493554
0.0218403122172942
0.0221191814379137
0.0451553574888174
0.0443648398697308
0.0218400833425431
0.0207977992662409
0.0367264222044139
0.0487818932034447
0.0393408713455209
0.0431157142157033
0.0537888905083483
0.0395155805589259
0.0211033442712522
0.0200990010903013
0.0390732008145814
0.0364303359548624
0.0197924645368816
0.0196487113870091
0.0367486720881761
0.0343383973995909
0.0192157490452613
0.0186246923050802
0.032440257171071
0.0317553494214708
0.0192401230772483
0.0190258777152713
0.0294917650248995
0.0171753022791505
0.017401093779489
0.0168660488482489
0.0157772882546769
0.0158367271164169
0.0156464087360431
0.0160433776866819
0.0309698883330324
0.0282546656227559
0.0158909879863971
0.0157691294477833
0.0257858222030931
0.0153870743077119
0.0151976444868944
0.0151919475960316
0.0154380631643675
0.0233957246358652
0.0255820939852001
0.0157144413777334
0.015697281306998
0.0255071602142504
0.0234123665768167
0.0159671008109312
0.0164559038943015
0.0259273607759245
0.0251553066960035
0.0172711637833695
0.0178680991662829
0.0256114526370973
0.0261988495069739
0.0185439124581017
0.0181114323389833
0.0262497460460251
0.0269923820312291
0.0182037797311096
0.0184364512584255
0.0291534194743323
0.0310287230632499
0.0191844346195683
0.0204274830927797
0.0348788724794132
0.0332485251113659
0.0208239015607977
0.0209602862127949
0.0354521289285239
0.0375525625497595
0.0484507404546512
0.0426667561534092
0.0235217730600902
0.024390573624693
0.0436382101717804
0.0412221570041772
0.0259725994964032
0.0266326974472851
0.0417062799699309
0.0449852210718716
0.0267288181567974
0.026740659942811
0.0462877412255504
0.0467000660264413
0.0268717441535689
0.0273790620118648
0.0487470929356162
0.0493069352261664
0.0271613215520272
0.0274761749153923
0.0506428451438401
0.0511944386484028
0.0276183536712417
0.0280109242729969
0.0527544162779755
0.0545414632771398
0.0281923401231906
0.0282396271134143
0.0552546533644324
0.0553586130648488
0.0280887404743239
0.0283727054180464
0.055902872181368
0.0570395411884321
0.0283727366263741
0.0282841051435824
0.0570853715756016
0.057020149403826
0.0283426610710309
0.0283488396788904
0.0567054913063856
0.0562814985805948
0.0284720304334957
0.0281879337334082
0.0554854705674296
0.0553149843802585
0.0282084875663132
0.028064191769286
0.0542405038833587
0.0532839406336235
0.0280097074503576
0.0276487227591168
0.0518322017265929
0.0512993246120571
0.0274726744251447
0.0271014763390389
0.0499692611779419
0.0491107428787453
0.0269058409204514
0.0262901021581871
0.0473300294255725
0.0471916121492341
0.0260937642356536
0.0259775310964316
0.0417891586184015
0.0432818611430751
0.0265941187489034
0.0267561284837609
0.0436448447615353
0.0442601293840444
0.0271022572169928
0.0271938829098537
0.0442709547973107
0.0450871891859645
0.0275594923076546
0.0275821717500299
0.045581480010566
0.0462496479030487
0.0277760080638567
0.0277199651829284
0.0462782489923512
0.0467556645784366
0.0279574790938145
0.0278549032666886
0.046910884492254
0.0471642299294944
0.027871766045673
0.0278390381468719
0.0471545741565932
0.0470935382278612
0.0278774220194713
0.0278430010928678
0.0463610207950682
0.046051047908274
0.0276518440401899
0.0278115572325682
0.0460377299333855
0.0455259116509823
0.0277071610773272
0.0274934292879869
0.0440540408847187
0.043186633445864
0.0271223507727547
0.0270598589512527
0.0430095526211046
0.0423881203957287
0.0267627720443926
0.0270881356970931
0.0422946568758889
0.0409182426772541
0.0265851074389334
0.026827187306026
0.0228665071601846
0.020483795108778
0.0179141235801312
0.0173709004210924
0.0166262535763733
0.0164763242339949
0.0159052637421225
0.0157882823673901
0.0157547686345434
0.0154965308283974
0.0154185098672892
0.0158621433958581
0.0279425259141076
0.0281004289852114
0.0159499833100394
0.0161467541246958
0.0309564566214545
0.0286631566937108
0.0167893606755867
0.0173486205294802
0.0284468348713059
0.0268331960315305
0.017199850719373
0.0182357259495407
0.0278492569309694
0.0285532624739477
0.0189507851620035
0.0184207607666058
0.0283359461093415
0.0305930496662399
0.0186094949001489
0.0186834180097855
0.0313469472239615
0.0338761605250783
0.0195250239628871
0.0210711851292247
0.0392674037081582
0.0374822909785126
0.0214947021205367
0.0246661615698721
0.0403047754585694
0.0534834911972149
0.0468958193615402
0.0496483015297167
0.0248367686888685
0.0264244345846856
0.0481635011635682
0.0523015150371932
0.0271221879953491
0.028185157257799
0.0556898977778119
0.0583939278403534
0.0282788575886403
0.0282641278101491
0.0620128942319349
0.0630337914023863
0.027592431386872
0.0282406634405706
0.0656858565745052
0.0667876361509786
0.0283255998326948
0.0288078268545887
0.0692663460963164
0.0707569850704613
0.0292624142122128
0.0297820214919625
0.0729166615735792
0.0744371874322281
0.0300770169610948
0.0302774274627322
0.0747961198644023
0.0750454155274766
0.0303540440075595
0.0308225100492965
0.0760690546538109
0.0779182391043819
0.0307891124396136
0.0307039238476764
0.0777710843021319
0.0775257866875875
0.0308000232385713
0.0307047219856066
0.0772715626024971
0.0765540944203935
0.0307699259485218
0.030360260911812
0.0755705859168462
0.0754383073608402
0.0300968419273498
0.0297846058571308
0.0746171179332539
0.073337461427384
0.0295180647992041
0.0290753213579023
0.0711340670266562
0.0690129840651433
0.0286269338611854
0.028081136315843
0.0665048247704356
0.0658205940860832
0.0277181255016982
0.0270067064526955
0.0645404499167937
0.0568812937736355
0.025946399059058
0.0256928117327629
0.0509728087580907
0.0454912455460179
0.0242392278395761
0.0247459049591912
0.0548948444828847
0.0675622083906655
0.0252619705905307
0.0258298853622268
0.0867953845407192
0.0592018332515266
0.0239155235363383
0.0243386401143529
0.0713456944906037
0.0490472772501065
0.0222677784745345
0.0225052089080344
0.0548430182905603
0.0521024833466716
0.0220986878061438
0.0223415834407657
0.0617794121701028
0.0483958816475008
0.0598740890369975
0.0429825168855925
0.0233084581054781
0.0218680028640884
0.0419949004624528
0.0433372941000712
0.0215362607036112
0.0203274934272155
0.0412117158525823
0.0373050380618226
0.0193460557009235
0.0187377596971091
0.0350422674859734
0.0342978223312992
0.0193165480465201
0.0197842593913531
0.0350900493796625
0.032135210287622
0.0197579987628643
0.0191691205924781
0.0310839569725694
0.0289888755849495
0.0176046876878375
0.0176599060284876
0.0306991836898491
0.0314617950273004
0.0172930111224043
0.0174452959226004
0.0342376694859005
0.0342409993454591
0.0162299166272294
0.0158439381051352
0.0289010878755561
0.026821806576651
0.0157262509605551
0.0157269442195356
0.0266773727131274
0.024973042151014
0.0155782856942426
0.0152760738985452
0.0153773506045661
0.0155503457017587
0.0160449424898008
0.0305894214083223
0.0338458363508618
0.0163104263763537
0.0175233206237042
0.0342723663917429
0.0317818633151728
0.0174971775210209
0.017437349487558
0.0315690905212844
0.029841399346531
0.0173229523571159
0.0185186617715897
0.0329237132736291
0.0303369308488129
0.0183897906546063
0.0191054978774992
0.0312269094648206
0.0341815214342531
0.019216275686423
0.0187783726205222
0.0330330303186908
0.0337794337342305
0.0189030165004943
0.0198509156252527
0.0371119704877136
0.04421827763346
0.0214192447076399
0.0217956252553734
0.042433141111258
0.0475201887301328
0.0675386309832714
0.0574458371476753
0.0254112854330853
0.0256056369005721
0.0661055906198477
0.0699345262885705
0.0273265689815839
0.0280510055380215
0.0887258648818618
0.0968931037538886
0.0289199930442606
0.0324329289280361
0.135635943705076
0.136504411204384
0.032626909892059
0.0339640632782283
0.142846018410734
0.156402595004099
0.0381199049715724
0.0445028352547174
0.156139079065967
0.179454569409892
0.0495348988968121
0.0505940159819915
0.187688069149845
0.191891299591145
0.0503155973927625
0.0494650929531497
0.192393332683158
0.193192498118537
0.049599458551409
0.0492259643681235
0.191601486157494
0.190698855367381
0.0497054141022542
0.0493002136852048
0.188061850239129
0.187534693387682
0.0497497338131803
0.0494231241391857
0.184864538350816
0.185406172541509
0.0499118565893164
0.0496431804911849
0.184027300512599
0.186021263895059
0.0502500448638611
0.0503210635620403
0.1862731499498
0.189014651545832
0.0509023876814128
0.0506427094383775
0.193095628473807
0.194509958163014
0.0506730518858751
0.0503995042984092
0.192575444968427
0.191743057567654
0.050573353620193
0.0508972355985951
0.191568303171564
0.190614629316653
0.0504800569141744
0.0506945579599712
0.192431816878697
0.190803667945699
0.0502820980656706
0.0508425189028519
0.191944379007644
0.190242318479427
0.0503284556776208
0.0504687618777503
0.190926812318911
0.189872211207288
0.0499291905874914
0.0502442335281842
0.192125141403149
0.192419369720189
0.0497780619853238
0.0501620240043348
0.195748380167946
0.197133185445175
0.0496651267889555
0.0503118543798595
0.200058324532858
0.20036156695678
0.0504533075603644
0.0515169936165239
0.200195802348656
0.195514432129551
0.0517446803006963
0.0504671335708925
0.186184303776405
0.160898681192082
0.0452485035252015
0.0393306374881219
0.162148296727679
0.152385875933118
0.0354921704887324
0.0323905233985518
0.149937569235816
0.101705804793642
0.0274171958174548
0.0267495989008687
0.0843072499641693
0.0732703318459312
0.0264260276720014
0.0260129306228963
0.0635965289076867
0.0774917747018409
0.027546879410723
0.0288616413639545
0.0940199496142584
0.117317561726955
0.0300694700358792
0.0331226389634337
0.11736620656312
0.121606877983371
0.0371857369527961
0.0438545292639916
0.138012413553035
0.147721364267863
0.0495245663053135
0.0506826192779121
0.153299886583957
0.157658098713577
0.0510140443606345
0.0495579035967785
0.159908612282212
0.162244315063298
0.0494777306738999
0.0483741710450381
0.160871083244116
0.161693394439185
0.0490255982525549
0.0483618617098562
0.159201811857193
0.160356843466625
0.0489708007303558
0.048449882469196
0.158343203951145
0.160106917857721
0.0490980155220335
0.0488277943992014
0.159509106638945
0.161376518691139
0.0494484917995382
0.0487951327466032
0.160829509544151
0.162175058876377
0.0492749335793892
0.0490206447353923
0.160766678279863
0.161673269353522
0.0494411745926279
0.0491190709929549
0.161931223425947
0.162228964021072
0.0489833858936245
0.0492510714243204
0.163688710876059
0.162870454748138
0.0491704122566171
0.0494353115172069
0.159254103548599
0.157220573839163
0.0488325822659421
0.0488197953698952
0.156746366470556
0.154842747403297
0.048159589837435
0.0485656354503579
0.156094321392536
0.154735562494666
0.0479659875196509
0.0484789038458915
0.157070461863003
0.156139016356131
0.0478980668929428
0.0485707001604433
0.157943548209515
0.156867907711508
0.0479546276026737
0.0486980548512516
0.157065996646659
0.154153643311865
0.0485229217581532
0.0498129007860695
0.151931722099635
0.147853750872899
0.0495986204634719
0.0485485194521949
0.142904650911664
0.133934718584318
0.0431332956019481
0.0358564721241527
0.119107977522519
0.111076439992621
0.0414283717775789
0.0457701973270888
0.116580804625415
0.119800172545518
0.0466114580152112
0.0474274112955322
0.12287862010923
0.124195834598181
0.0463586205356962
0.0471836840233845
0.127038415923032
0.127013785113442
0.0462146923677458
0.0469567140348194
0.129430170425191
0.12822084779053
0.0459246147065765
0.046684908644586
0.130127815508953
0.128074887753542
0.0459366807623111
0.0466725905355443
0.129828892184951
0.128778237471262
0.0461098037477326
0.0468109531352982
0.130380955682308
0.13105042516917
0.046763952639874
0.0473756276911938
0.132349345576111
0.13548151899428
0.0471024885918345
0.0472291930433357
0.135971048045015
0.134896517607104
0.0469700609150476
0.0470548623116517
0.134821905989735
0.13452529014135
0.0473657091466674
0.0469722970798492
0.133863048086034
0.134893431878037
0.0472630646729158
0.0467216891311295
0.133804714946564
0.133916836262776
0.0474825478381752
0.0467408082281902
0.132211987084204
0.132682645785125
0.0471674899045852
0.0463897092730822
0.130609405477408
0.132422106629735
0.0471771210223553
0.0463640637202683
0.130299841414437
0.132229713205574
0.0474281195817135
0.0466306264545751
0.129880151765278
0.131177565730351
0.0479736443173492
0.0472780281683306
0.128564537188378
0.127115095778173
0.0484834020080025
0.0475662639693631
0.123839654396395
0.120217355300874
0.0467158371412639
0.0421162983189789
0.114383281725755
0.103601416747744
0.0379687699185599
0.0328104782294679
0.095056486167548
0.0940415549746793
0.0306281202753681
0.0287942891958202
0.0780490817719919
0.0791374325530266
0.0294089900482969
0.0302361024019528
0.0828958028857734
0.0862459051836574
0.0305665225229915
0.0393043560909015
0.108539195949269
0.112151705575834
0.0389858278722642
0.0386580321153037
0.11295845734236
0.113157590623237
0.0385857637248138
0.0386775108571443
0.113256758217424
0.114474094708724
0.0389637914024008
0.0388129219627284
0.115584920447376
0.115610221674259
0.0389003797599981
0.0387410510985012
0.116159357714552
0.116752881359728
0.038867450436009
0.0389769285018481
0.113488785525152
0.111717643768506
0.0385278413303935
0.0384005953397736
0.111237045244256
0.111386811141093
0.0383263111526897
0.0384602731019084
0.110519253470069
0.108420895991239
0.0385186444541265
0.0387160578186163
0.105133246382146
0.100678100638723
0.0372301589899454
0.0318419419559835
0.0939101564419095
0.089702407151259
0.0292880871989858
0.031665146016242
0.111325939255626
0.10809973784725
0.0307149287600001
0.0302802175953937
0.106571717258128
0.0805072495022439
0.0284505890865954
0.0275828243995676
0.0665739372464387
0.0696748364340222
0.0282927874459254
0.0292357940775423
0.085279731549635
0.0879505075630141
0.0291742626297215
0.0285246252438738
0.0728461592601053
0.0743012122752611
0.0281531322971049
0.0290058698271525
0.0783004914919363
0.0804394915175317
0.0298097986162176
0.0302644483011139
0.0837392699153877
0.0855487287256666
0.0305097182190559
0.0312691941947667
0.0865536267112033
0.0868181505888696
0.031808099225524
0.0321867476936761
0.0864717533936037
0.0864710820740573
0.0324449823298392
0.0329936549890165
0.0876433310241565
0.0896733883295471
0.0329890130216657
0.0329075126897808
0.0894271117969049
0.0891035330526873
0.0330098025844265
0.0328683631921184
0.0888649915888216
0.0883504846058658
0.0328354238513059
0.032333718749498
0.0876606765977647
0.0881574389195079
0.0318410085116554
0.0312634728032932
0.088482656158023
0.0885905103323257
0.0306966525578353
0.0300880387844595
0.0268256626892543
0.0263784889322183
0.025856215320743
0.0252427850335675
0.0233834477060809
0.0232164228623053
0.0228755817356048
0.0225619781248079