/*--------------------------------*- C++ -*----------------------------------*\
| =========                 |                                                 |
| \\      /  F ield         | OpenFOAM: The Open Source CFD Toolbox           |
|  \\    /   O peration     | Version:  2312                                  |
|   \\  /    A nd           | Website:  www.openfoam.com                      |
|    \\/     M anipulation  |                                                 |
\*---------------------------------------------------------------------------*/
FoamFile
{
    version     2.0;
    format      ascii;
    arch        "LSB;label=32;scalar=64";
    class       volScalarField;
    location    "800";
    object      nut;
}
// * * * * * * * * * * * * * * * * * * * * * * * * * * * * * * * * * * * * * //

dimensions      [0 2 -1 0 0 0 0];

internalField   nonuniform List<scalar> 
162506
(
0.00149787185286677
0.00155225647791685
0.000102987386138349
7.88007249129942e-05
3.92611142323299e-05
9.52642589429548e-05
0.000460211122545367
0.000530887046542377
9.31985264731823e-05
6.34525199054949e-05
6.95895627577206e-05
0.000885920680375789
0.000936977195175449
0.00130188759221834
0.00293180577198856
0.00332130587814909
8.95290072083811e-05
9.28913897273833e-05
0.00132946341644669
0.000677631990446702
0.000910838943432259
7.9873940693623e-05
8.51390236347754e-05
3.87256627612674e-05
4.36014508832568e-05
6.12590295979523e-05
5.67984584773286e-05
0.00570461926799656
0.000106154642122854
9.82012993119991e-05
0.008134716330981
0.00772320009968066
0.00496190941642278
0.0104499951338427
0.0150001157144509
0.014941314829248
0.000100603915222476
0.000109813258234108
0.0106574152176158
0.00846505772637102
0.000113129648601233
0.0001107133594685
0.00510549165401538
0.00458219725578921
0.000110747108410913
0.000110631129518735
0.00324900342542121
0.000815507486385752
8.70924646150715e-05
4.53257030803529e-05
8.51773161026782e-05
9.13395739791397e-05
5.00793347129757e-05
9.64918722361594e-05
0.00116104761595805
0.00128197405590173
0.000101217791488814
9.79041541780165e-05
0.00086365144329126
0.00214226963811955
8.25008541680924e-05
8.17069010592048e-05
0.000955034064568667
0.000819821282774497
0.00228428587062691
8.0679191021103e-05
9.25363012212353e-05
0.000109623711359643
9.78210012495849e-05
0.00434994121413305
0.00283509924932227
0.00418218734059288
0.00593911346786857
0.00352954524906785
0.00247420770767242
0.001924794924093
0.00167937526513118
0.00334008782998009
0.0029843930598448
0.000102682705050964
0.000113684793077075
0.00530341555541274
0.00507061695133159
0.00827167042880579
0.000102931470287713
0.000112842900216341
9.99221951331321e-05
9.02207360851289e-05
0.0101055461438321
0.00566219701913219
0.0131060587311853
0.00962137339101359
0.0145317854624913
0.0125346179275049
0.00871266157320011
0.0116660760736506
0.0150003104212226
0.0150014780197822
0.0150016937373644
0.0150004403489943
0.0150003377118618
0.0103860514435526
0.0109431727983399
0.000109774138203324
0.000100687873754058
0.01494306410005
0.00731895583994935
9.82866259306779e-05
0.000107008808641147
0.00569913616570272
0.00570699677555131
0.000110705411386551
0.000113664135307573
0.00931353117708864
0.00803724260344347
0.000111183173854918
0.000110076878986633
0.00788117753571262
0.00485664533100643
0.000110957614124731
0.000110720128803305
0.00380581420866345
0.00334350452615669
0.000115616264716861
0.000112466379815195
0.00230401732819526
0.00112584925130633
9.70003530584314e-05
5.41727183713982e-05
9.42756656675853e-05
8.7679128689431e-05
4.83550008635115e-05
7.64226413645474e-05
0.000744216236595816
0.000702724438385653
0.000112256583177816
9.6706535900705e-05
0.00131411244253995
0.0021948713373154
9.34315343955388e-05
8.75989356884079e-05
0.00271951224869103
0.00373650555740814
0.000107805906383304
0.000106073050194503
0.00351616308660033
0.00824550352283445
0.000106405869621832
9.81117012318061e-05
0.00480105984918271
0.00691991924977362
0.000104860785705789
0.000102389014072007
0.00802706189929236
0.00709583081845233
0.0110151347906953
8.659334530442e-05
9.60092690364497e-05
0.000105912775895138
9.42710930577776e-05
0.0149278963006534
0.00818229766514351
0.0150011148252006
0.0150007002868435
0.0150003448227602
0.0150008106962392
0.0150010927830353
0.0150004689388887
0.0134263562626431
0.0142008973628396
0.0086904467085209
0.0104564385937526
0.00703872008980501
0.00489609714983096
0.00126314621662792
0.00278940586380746
0.0031292252963374
9.01386003857475e-05
9.62964178521918e-05
0.00143544749249746
0.00168874217436342
0.000103017147108315
0.000110804649932266
0.00318633398936085
0.00532132379731016
0.000110969796140427
0.000111897907228479
0.00415821107068968
0.00515705694275519
0.000110580785123059
0.000108169627691815
0.00276192752223117
0.00275046348664759
0.00010526980345838
0.000108592625805559
0.00251892845603755
0.00135813936461471
8.98328708894086e-05
9.46423948781928e-05
0.00138324542135456
0.000725863504526678
8.71427491588148e-05
8.64038591337261e-05
0.000720501539448268
0.000611278196871524
8.0358045605694e-05
7.61432595159744e-05
0.000697456773348493
0.000640484872023212
7.77315096486717e-05
7.31230698820756e-05
0.000815435940714411
0.000588078473698846
5.39901423334742e-05
5.21269337434904e-05
0.000510115243085819
0.000618336284314966
6.46500679403428e-05
5.7520174763396e-05
3.32097327245468e-05
6.77600833889975e-05
0.000603919922113613
0.000540408779473959
7.23274515412082e-05
7.2408846995675e-05
0.000492213527422965
0.000480899433641602
6.02967084620607e-05
3.5890996010025e-05
6.82123238686097e-05
7.44045312478407e-05
0.000384149163531422
7.05421750764459e-05
3.37069724642765e-05
3.50655038022278e-05
7.43913213963932e-05
0.000503937675035383
8.75689335848373e-05
8.46210001703446e-05
0.000561182466680447
0.000968875987108582
8.65206569252857e-05
8.63005260826876e-05
0.00153044288202095
0.00208074899931699
0.000110610868346068
0.000109304131529973
0.00293814085035515
0.00432513995943271
0.000111644232122689
0.000107226248330844
0.00702651795208212
0.00436781947139943
9.51569755598381e-05
9.55665902868857e-05
0.00442217434260137
0.004960436485711
9.77711911254186e-05
0.000115482585205582
0.00894251753368291
0.0113981285934008
0.000114554622659835
0.000113471001684787
0.0112415721872419
0.00701955564582673
0.000106435084070214
9.44093992183984e-05
0.014928121354099
0.0147867146696432
0.0132769157837095
0.00587756764742264
0.0116693230596828
0.00941400177756331
0.0122215458951533
9.55657901235226e-05
8.70039181739402e-05
9.01437295748923e-05
0.0146897374588439
0.00536386087840691
9.95848616847192e-05
0.000103669222284081
0.00671331458855575
0.00564459048200544
0.000113321558825079
0.000102798689882602
0.00279470003864082
0.00295205504848593
0.0041297659535175
9.71563299836202e-05
0.000110734602449534
0.000113005250383139
0.000102844407945395
0.00766066386897205
0.00509363391102031
9.10193246128336e-05
0.00083131717068929
0.00235094078328885
8.14041186868476e-05
7.01137974563391e-05
0.000880443204873964
0.0010190661860823
6.37794566723124e-05
9.47446598516732e-05
0.000531944203573489
0.000455049959257157
7.79975923619877e-05
4.00560748033806e-05
9.87572254111883e-05
5.99528968660648e-05
6.40393786022218e-05
0.000927467955504098
0.000680679457789638
8.46164880963347e-05
8.28993349238864e-05
4.37521472380131e-05
3.95215514358634e-05
8.37545738828537e-05
4.57509970711889e-05
8.63678841308945e-05
0.000777714426204405
0.000875638145903353
9.75006166588321e-05
0.000103776365119917
0.00128202861554525
0.00117342732030079
9.25377016539303e-05
5.03681967552194e-05
9.53893800432722e-05
9.68404284727919e-05
5.38089780376749e-05
9.3302045164126e-05
0.00115152649855441
0.00236283247476348
0.000113799209148421
0.000106890085224673
0.002670918962559
0.00135426892148165
9.44133134935546e-05
9.52146645037292e-05
0.00128824912078179
0.00135046860231653
9.6818267152453e-05
6.47645189278474e-05
0.000713189466985648
0.000422685880212779
5.19370876650859e-05
4.29913447699669e-05
0.000289002112416617
0.000373938851930056
4.7578873868136e-05
4.2163281746049e-05
0.00028792312261821
0.000385596760833074
4.75404728572915e-05
5.37049211566241e-05
0.000513863150734591
0.000622831816574706
6.21312550495841e-05
3.35176322942577e-05
5.22862378445017e-05
5.30078916904332e-05
3.82957794566476e-05
6.54384814533266e-05
0.000391817411988526
0.000488420766571662
6.65951599153537e-05
6.29063994869824e-05
0.00086448813697529
0.000419056789755014
5.64695728814638e-05
5.08500909868095e-05
0.000383950733216754
0.000313613799004865
5.87196237553096e-05
7.29446784375508e-05
0.000428197689668948
0.000826390126759092
8.0445710243134e-05
0.000110107985723983
0.000836508322235011
0.00131633594406253
8.93545340337192e-05
9.55023084390183e-05
0.00156159451641821
0.00262295507466456
0.000113732635272494
9.82814890316389e-05
0.00289789483006913
0.00413467687405412
9.60091866215048e-05
9.65819273841586e-05
0.00413526734480616
0.0048986178902149
0.000115132383235239
0.000114695250561252
0.00793503533914907
0.00792056151244613
0.000115012151390788
0.000114998334099593
0.00894415420229011
0.00493980982790371
9.64757374494698e-05
0.000100261150079934
0.00754368698689064
0.00319956461643221
0.00774641530836674
0.00777210758284366
0.0147374018864052
0.0119536120684864
0.0105084978359515
0.00879954735496569
0.0115705947381474
0.0134231052529624
0.0110915371269358
0.00476621099311177
9.8526834951793e-05
0.000105249892378266
0.00819972213713352
0.00341729986107428
0.00010587755051824
8.30660010287466e-05
0.00205766244214412
0.00290574212722716
8.69782615625838e-05
9.27772046251099e-05
0.00256192454385573
0.00136879386130748
9.7630785095369e-05
0.000109871826617502
0.00073005559310495
0.000824764634622869
8.52828865733155e-05
4.67742955799371e-05
7.71439471181922e-05
8.44139773703292e-05
3.39690550613439e-05
7.08166179185999e-05
0.00054069217151743
0.000635628391586449
8.54483899659537e-05
8.61094134784708e-05
0.000724677013951607
0.000668621445338452
7.98670832058984e-05
7.57778990761805e-05
0.000586172012069458
0.000545846322797068
7.63920917583478e-05
6.32739890977361e-05
0.00037452152355086
6.72093746057839e-05
3.27119927660115e-05
3.27004461397989e-05
5.57603961106626e-05
0.000389154369668686
6.15295200479352e-05
6.38148932251069e-05
0.000322603685590296
0.000411177919507748
5.45934429918311e-05
5.25691547046827e-05
2.8102612370928e-05
5.04956754493211e-05
0.000424451500703637
0.000489169196615469
5.72612157911146e-05
5.31303841669362e-05
0.000409094826212727
0.000283383182541471
4.34189655821269e-05
4.00518208609835e-05
0.000259961194142433
0.000245992400422927
3.81424896441214e-05
3.92154727327048e-05
0.000250188976989758
0.000184658523053675
3.64180585780796e-05
3.5602766967304e-05
0.00021420904037156
0.000177720341037997
2.96801010274129e-05
3.734960688772e-05
0.000190544072805481
0.000259584092347534
3.74541145535565e-05
4.28487041937647e-05
0.000295353268444792
0.000342683420679837
3.77711668249534e-05
4.47151695087827e-05
0.000325388878914131
0.000277015494658435
4.32917047428189e-05
5.52923586362144e-05
4.28096438652361e-05
7.00568664032552e-05
0.000311949022947374
0.000380566416819412
7.36465243153937e-05
6.7451278062936e-05
0.000448585078937495
0.000507059501921667
6.27883718948825e-05
5.64043684574138e-05
0.000444836549972275
0.000432422815495669
7.55695051472623e-05
7.25259876908032e-05
0.000491344765657469
0.000494291121768806
0.00061089106002775
0.000492803881941358
0.000304280277452497
0.000435793694385437
0.00083532797956748
8.29702911725858e-05
6.56662430611264e-05
0.00057783969573749
0.000364059576229101
4.64314214978356e-05
5.11104634155345e-05
0.000461479659368451
0.000754281218863461
6.36759253250772e-05
6.79964459722654e-05
0.000474125076938898
0.000390492078112949
6.02710693347496e-05
5.44095534068546e-05
0.000333840555052876
0.000336756512117753
5.50307631661977e-05
5.304834437235e-05
0.000499894438230093
0.000950458638963323
7.45125876262393e-05
0.000477774998100288
0.000714408700109054
7.37904127562049e-05
6.30544146789458e-05
0.000583518521727077
0.000505491685940919
6.06638782802151e-05
8.15241403968896e-05
0.000380665496824278
0.000461499667367392
9.74608235059436e-05
0.000107555284986134
0.000651472987727476
0.000663953905179577
9.36409460971092e-05
9.22685270801699e-05
0.000973754520590728
0.00178079464325178
9.22489068120348e-05
9.66592545179408e-05
0.0017303293016161
0.00304979690004483
9.71828205186617e-05
0.000114944130298214
0.00275248828115582
0.00283641730972202
0.000115304559356379
0.000115423398824952
0.0051976053650275
0.00411908011387148
9.69220889594294e-05
9.5761773499138e-05
0.00440126337574935
0.00435110784015864
9.59415280776324e-05
0.000107234165344337
0.00760981059455262
0.00412337017710756
0.000107786444925867
0.000112845264727757
0.0032062472011097
0.00234682277774836
0.000110587778800624
8.33152434642959e-05
0.00187526309660588
0.000897025254913612
9.17534582487006e-05
8.11787484144681e-05
0.000521344532301666
0.00029955749264664
5.48822690041632e-05
5.80959522355679e-05
0.000792014237128769
0.000560328816786742
4.65066257284283e-05
5.68073283416718e-05
0.000797957038812686
0.000585237021082058
5.46485280589331e-05
5.32596553980755e-05
0.000417800000864474
0.000423346919620961
5.47467637601283e-05
5.40159134979387e-05
0.00043074578189314
0.000389045663571094
4.96079737750106e-05
4.82828515870039e-05
2.61096727551812e-05
4.10149230641266e-05
0.000285076839366281
0.000243803282534095
4.25276885726979e-05
4.55177598793804e-05
0.000224906522317366
0.000334862705270388
3.98359894357535e-05
2.46668287018014e-05
4.25881855809836e-05
4.49158107781215e-05
2.66117601700686e-05
4.53859322400673e-05
0.00042892638552587
0.000443338766007412
5.31954754934713e-05
4.36799836602879e-05
0.000306356963417514
0.000217363900647401
3.6326172628167e-05
3.85337358264431e-05
0.000182560657261686
0.000174524474300958
3.72477430973251e-05
3.26548404033502e-05
0.00012972571679024
0.000127905070883774
3.19806810135139e-05
3.0745263473233e-05
0.000153116950183559
0.000147386268793505
3.34266718697699e-05
2.62124161539054e-05
0.000126280961868575
0.000140690547070347
2.4156981409796e-05
2.97927886777564e-05
0.000168762585849919
0.00021357064457704
3.02020719692729e-05
3.56780953232269e-05
0.000242885700147018
0.000263677787577477
4.08043018589723e-05
3.35288948360266e-05
0.000246823792921995
0.000212240304294814
3.78735440348733e-05
3.89833246736737e-05
0.00020426277623034
0.000265487381056012
4.76753071692194e-05
5.9390806044851e-05
4.76793177241821e-05
7.56629407236229e-05
0.000303406526375329
0.00037003153087497
7.98012259301657e-05
7.31462613358971e-05
0.000430491161661566
0.000575475504113979
7.03199843827306e-05
8.11275662363029e-05
0.000556318730617359
0.000438996589382168
8.01514599223094e-05
0.000373471834373125
0.00029458042810259
0.000184179494732746
0.000124809632379428
0.00013743463829563
0.000211763782849168
0.000223300337239685
0.000156904592380545
0.000281620750711752
0.000472943176864978
0.000651932991717244
0.000108933871151005
0.000110080099104225
0.000963020275376097
0.00158515648666132
0.000113295484773876
0.000113810862306113
0.00159290808246892
0.00170034315879116
9.76814260895095e-05
9.76098579826284e-05
0.00316860811769739
0.00304151966914209
9.69319163372407e-05
0.000115204350606603
0.0030389510913327
0.00171364451759116
0.000111092419170816
0.000112602021023531
0.00129378662698382
0.000935981841110401
9.50904563859516e-05
8.2669525929321e-05
0.000963606847996786
0.000411978060804298
7.35921935640157e-05
7.27914387379294e-05
0.000425988853021696
0.000409504247837952
4.15974996941794e-05
4.91299626418446e-05
0.000463991729304477
0.000444712868685197
4.79866806458117e-05
5.22943597056963e-05
0.00032846779304067
0.000287772099749405
3.93101561609776e-05
2.58757697861619e-05
4.45159224064865e-05
4.64315011014214e-05
2.96915285340807e-05
4.12262451965043e-05
0.000233869131338313
0.000200623288041364
3.53543127212595e-05
3.02204322353865e-05
0.000230007559284211
0.00018970856344743
2.84223597339177e-05
2.34400232190691e-05
0.000175308975698732
0.000148541801807233
2.28017565769851e-05
1.74670218863195e-05
0.000125648484807174
0.000111473942609697
2.22474545811976e-05
1.82609156812522e-05
0.000107212949029392
0.000108809764178075
2.23895254266322e-05
2.32816337901158e-05
0.000107680689539271
0.000106141909215362
2.29519200201477e-05
2.24714280647506e-05
0.000106172491526623
0.000107954522590174
1.82067280782247e-05
2.24132180703846e-05
0.000117359341643183
0.000135213875440621
1.7865897846155e-05
2.32377646082871e-05
0.000155013414934764
0.000189020184794763
2.53595134618439e-05
3.08960779920994e-05
0.000212729936835955
0.000181830079994296
3.07858856085777e-05
3.30023100509655e-05
0.000175190561581297
0.000160689601907261
3.8946900207728e-05
4.29953614041221e-05
0.000196428055276677
0.00020475756172585
4.97575512788069e-05
6.12322517140858e-05
0.000292893080919635
0.000348050123475024
8.32124940492052e-05
5.38950323664175e-05
6.97978104101799e-05
8.08642257186422e-05
5.87386559212251e-05
9.37371298954725e-05
0.000447027213558463
0.000549394637145289
9.58121594324154e-05
8.75195780321942e-05
0.000418931454110918
0.000454477248366216
8.08780631714711e-05
7.61912642537036e-05
0.00049558466718891
0.000570165013697122
7.95967733766534e-05
7.68507263748876e-05
0.000570908951425164
0.000522044716323701
7.24881750867071e-05
0.000507715151803097
0.00036085715942886
0.000410897679464238
0.000383232854543942
0.000434800562732568
0.00050868418030818
0.000626798534106751
0.000111653521947153
9.80033145265524e-05
0.000761163889570038
0.00105726866608967
9.56997839855923e-05
0.000816326546806505
0.000767088028819257
0.000720980279657652
0.000944797292615015
0.000110158214947622
9.55824782172858e-05
0.000977507385318969
0.000973288027866414
9.27847920167042e-05
8.8476681850544e-05
0.000949270538863254
0.000595278415182994
7.66656906882403e-05
6.59920035713895e-05
0.000713725213584261
0.0006399222471363
5.96328100500287e-05
5.95945402039555e-05
0.000727348748012438
0.000593390512619603
6.46334367939801e-05
6.52905387143619e-05
0.000429484956924376
0.000345219062960122
6.14278638126231e-05
5.35114557966569e-05
0.000332310824566197
0.000304327327067113
5.12049883650939e-05
5.02287475003831e-05
0.000255747936547374
0.0002204518683386
5.84135041064783e-05
4.90966222467319e-05
2.98426282695285e-05
4.30269966201531e-05
0.000216256464431753
0.000181910950679739
3.62313451009176e-05
2.86825855078836e-05
0.000196963262511426
0.000190394437823994
2.44307722472007e-05
2.08107610532148e-05
0.000129762076511879
0.000145675008426274
1.61664427517785e-05
1.7905882706404e-05
0.000132770416136527
9.69873437926406e-05
1.99251392427724e-05
1.60196936662672e-05
9.71189785021664e-05
9.48281083143496e-05
1.9221726184751e-05
1.67118096040448e-05
8.56870150080493e-05
8.06578665198407e-05
1.90568032754223e-05
1.6942353236092e-05
8.35155514479621e-05
8.96768410471435e-05
2.76236422372987e-05
2.08047871083856e-05
9.73271148057626e-05
8.17797435870625e-05
2.49324753205352e-05
2.61626715685521e-05
8.68683213953938e-05
9.38801869562497e-05
2.98806799503591e-05
2.78222644148656e-05
8.95201846411566e-05
8.61485189007143e-05
2.08819065937035e-05
2.47802049296783e-05
8.12849225841478e-05
9.2665926727801e-05
2.03154190575397e-05
2.29942304538131e-05
8.94669807977708e-05
8.32392273331143e-05
1.65580911016921e-05
1.73261889596234e-05
8.32023047723783e-05
8.76478241834103e-05
1.70537207664087e-05
2.06624612752114e-05
0.000102368214405701
0.000109509592837383
1.66242905507881e-05
2.03667535899636e-05
0.000107110299420116
0.000145928784405763
1.86409419920813e-05
1.78456302391906e-05
0.000182368430784077
0.000153784622736746
1.86600776119366e-05
2.08116913580482e-05
9.62592896593836e-05
0.000102174066128761
1.57641693611839e-05
2.2511600654378e-05
0.000104171279031416
8.97149415125586e-05
1.81188915890983e-05
1.78720973154813e-05
8.17492175892117e-05
7.96247092673519e-05
1.67258789410878e-05
1.97025679285977e-05
9.03243876679079e-05
9.61495586070232e-05
2.08031672284562e-05
2.49028863959114e-05
8.49116563202006e-05
7.92813608132019e-05
1.95838223966421e-05
2.51993880021676e-05
9.50848687688072e-05
9.81810004494532e-05
2.60314352595345e-05
2.46737119319251e-05
8.74415377716655e-05
8.87385477840084e-05
2.60076855152577e-05
2.08634110565462e-05
0.000103849145026604
9.41159415104908e-05
2.10951832139217e-05
1.63217925928184e-05
7.89833851971281e-05
7.92322474678367e-05
1.83505586123702e-05
1.77179041313663e-05
8.82247601135052e-05
9.60479044557306e-05
1.99220400061663e-05
1.5644091704804e-05
9.13461219004837e-05
8.88698614630337e-05
1.9751449469577e-05
1.85098048606694e-05
0.00012693109686284
0.000160846859029153
9.16132113724453e-05
7.98823283886078e-05
6.10150071475128e-05
5.94301862413284e-05
5.97123916595134e-05
6.74137236256862e-05
8.72050708501466e-05
0.000126579476245838
0.000248330985845861
0.000334399575625345
0.000499099260693207
0.000653410346934012
9.51520060614504e-05
9.20655119095468e-05
0.000668972612990438
0.000555478070983598
0.000100828484498263
8.19112891480635e-05
0.000493418373645423
0.000429936284309309
7.27340778556435e-05
7.00759729393214e-05
0.000460644493380365
0.00047222836782421
5.75398453183184e-05
5.61341926882255e-05
0.000519676013166147
0.000410021247367997
6.17335094612291e-05
6.5966964372593e-05
0.000358307778653316
0.000297264556623412
6.49449747034692e-05
5.75267987008414e-05
0.000266654735657167
0.000272605652737034
5.66288340355122e-05
5.2333506958209e-05
0.000212287320919291
0.000197509451850003
4.85397591488521e-05
3.41775066986989e-05
4.49602030047429e-05
3.97825597677867e-05
0.000167901875911178
0.000185756577289879
3.07651664400081e-05
2.28717691328994e-05
0.000154346459060662
0.000166520077560131
1.92044472833715e-05
1.9687862030141e-05
0.000119657025383119
0.000108175254433677
2.18937917272522e-05
2.15540189184546e-05
9.82885997370722e-05
8.37850874088753e-05
2.3488069271367e-05
2.2737020549176e-05
7.52443587535168e-05
6.95778325108579e-05
2.25745247834149e-05
2.29150581800214e-05
6.06315074229384e-05
5.42682200916869e-05
2.42016144902656e-05
2.39466060638303e-05
4.9674270100097e-05
4.53388581535138e-05
2.31684613133165e-05
2.09865063196787e-05
4.30487627299615e-05
4.00855591762142e-05
2.29963543159797e-05
2.46175341358102e-05
4.04624077935244e-05
4.02547472130093e-05
2.4608884775304e-05
2.36454647786387e-05
3.98393142842233e-05
4.12077565477366e-05
2.26546325383941e-05
2.33279817803949e-05
4.18928786073542e-05
4.536945318113e-05
2.24524133981345e-05
2.50393211837505e-05
4.99033809466548e-05
5.56088582580076e-05
2.38660172078709e-05
2.2909922244859e-05
6.16399462847509e-05
6.68943266517925e-05
2.34215530091936e-05
2.40456224690071e-05
7.67074846662843e-05
8.62125273545787e-05
2.34873581747429e-05
2.40581728546595e-05
9.39577555988983e-05
0.00012020346137807
2.33590231464427e-05
2.20934417789074e-05
0.00011818333100953
0.000116841666037249
2.17133345326847e-05
2.24693290440587e-05
0.000149385553175189
0.000142279676947798
2.85288439974918e-05
3.62395409002553e-05
0.000141344445447421
0.000153271217636034
5.12701632123574e-05
4.90734785643796e-05
0.000173742028549833
0.000182505956410525
6.39314339915398e-05
5.32730760756849e-05
0.000223295779976157
0.000250882183386569
6.21299956709933e-05
8.32030040753301e-05
0.000363627509542143
0.000468503079934394
9.54155261681032e-05
9.10486555393086e-05
6.14341381604671e-05
9.86571015594935e-05
0.000617320677685257
0.000756095998297991
9.41291449937935e-05
8.92459484440018e-05
0.000689520019787299
0.000667350006264412
8.33498937017597e-05
8.07612969268721e-05
0.000590637740902936
0.000678190430320101
9.22954488455739e-05
8.08902182914962e-05
0.000732425193422529
0.000958722866451037
8.14189429034455e-05
7.12034967757901e-05
0.000641049715613659
0.000650508966994844
6.57903340057471e-05
8.70946074488921e-05
0.000560742423160863
0.000786233548018763
8.61461929743252e-05
0.000110738231628406
0.00120830740895996
0.00109760635072458
0.000116987313289113
0.000139778136924489
0.000968632560971844
0.000852758132476377
0.000143612277223386
0.00011985184845638
0.00057356608426265
0.000532914656298412
0.000118079262863414
0.000108060939845741
0.000614385221898459
0.000430185374561208
0.000394846635484831
0.000431422146893664
0.000548658615839613
0.000107517291383573
0.00013764622961411
0.000817861218424323
0.000874200724847957
0.000117612491471493
0.000103927858620579
0.000863001830901891
0.00060460781945548
8.49242420649361e-05
7.76105931830543e-05
0.000430871613177534
0.000449102265203322
6.85329289574934e-05
6.11417138920257e-05
0.000429257509789434
0.000477260129124863
6.03345387898354e-05
6.91037879829192e-05
0.000494216164573076
0.000382048688276002
7.59790827147258e-05
7.48947073761259e-05
0.000342559530733091
0.000285031324840015
6.78534548246759e-05
6.82083908855703e-05
0.000317297869480154
0.000225692428595155
5.86775446046355e-05
5.421810709075e-05
4.34934497828393e-05
6.04857955682363e-05
0.000221278699941595
0.000171823688542897
5.49121881801808e-05
4.78976567226833e-05
0.000185879154233041
0.000182015501614495
4.85741241899928e-05
3.63355483253259e-05
0.00010056206032253
0.00011318999703824
4.83513725770137e-05
4.91242750891422e-05
0.000106667520920574
9.60371667354547e-05
5.13886325704576e-05
4.53478143288959e-05
8.07790558127332e-05
7.8530023440392e-05
4.09584124341175e-05
3.82374452017454e-05
8.16707312559881e-05
7.8461177534711e-05
3.85146894727733e-05
3.71734767007256e-05
6.93999705054462e-05
5.43879412252035e-05
3.5459520171783e-05
3.52765865340666e-05
4.48720663305834e-05
3.83238298611087e-05
3.32190370240741e-05
3.15018958966509e-05
3.4767643099365e-05
3.26766834793782e-05
2.94824688293016e-05
2.89096863293507e-05
3.15449952059808e-05
3.05353672427359e-05
2.74330755975604e-05
2.7470831910316e-05
3.0153992033029e-05
2.96847978356129e-05
2.63031147051532e-05
2.66153984060942e-05
2.97332638646915e-05
2.93151358143791e-05
2.65042948331897e-05
2.6309561165296e-05
2.887343767043e-05
2.86991164236668e-05
2.73251223022635e-05
2.75707440900932e-05
2.95267555143532e-05
2.94889486773924e-05
2.73163386201988e-05
2.70906104345756e-05
2.87978809092961e-05
2.8848422205765e-05
2.70279065537448e-05
2.70763978434176e-05
2.92535615720067e-05
2.95064527021442e-05
2.63323433602702e-05
2.69249275052034e-05
2.89709536420781e-05
2.93925642507363e-05
2.74859198357954e-05
2.72864623564919e-05
2.97921996980199e-05
3.05707810945405e-05
2.83157195457542e-05
2.81817157576651e-05
3.09295257420924e-05
3.19067706309821e-05
2.97559174697004e-05
3.04556612706493e-05
3.31300292026136e-05
3.53946711648776e-05
3.25112685485357e-05
3.38417793110082e-05
3.90375933695246e-05
4.56484159923701e-05
3.6196720945857e-05
3.68263555121229e-05
5.55561404551449e-05
7.15808419110827e-05
3.90143987577679e-05
4.04711875233807e-05
8.10820047719327e-05
8.67725099366647e-05
4.01067714760668e-05
4.31586846806439e-05
7.99514917019664e-05
8.49532985233811e-05
4.60753727603824e-05
5.25406434079944e-05
0.000107234184296399
0.00011755992159185
5.32821284060323e-05
4.22945193706013e-05
9.56813552112147e-05
9.37685895765773e-05
3.27051579186032e-05
2.94293840932366e-05
0.000103154768827333
0.000101477304483487
2.54035734886997e-05
2.66548573586313e-05
0.000108643104992055
0.000112784433694494
3.14566996766547e-05
3.92308801973644e-05
0.000108814699907995
0.000101238736538674
3.73497753245906e-05
3.26066551533206e-05
8.15497099592325e-05
8.08045941018108e-05
3.75568000903328e-05
3.17014741422174e-05
8.30622079646183e-05
8.0981770299949e-05
3.21090533427293e-05
3.12316232054894e-05
6.94477425199579e-05
5.49003516867284e-05
2.93096772672716e-05
2.9008061533596e-05
4.4019350015447e-05
3.71148015061753e-05
2.67654505498356e-05
2.61309684666701e-05
3.32599113901339e-05
3.06831892174033e-05
2.42893653548953e-05
2.41331698063551e-05
2.92954893878203e-05
2.82036570370974e-05
2.25866035518152e-05
2.29689623758707e-05
2.77810159076746e-05
2.71155189545943e-05
2.20417633381281e-05
2.24047593955217e-05
2.67885651206308e-05
2.63285377101873e-05
2.19635084764675e-05
2.13536840544717e-05
2.67463773902347e-05
2.65170644769189e-05
2.19300161798675e-05
2.20766255760393e-05
2.60768711555239e-05
2.60380205580395e-05
2.21185029920808e-05
2.20280225797298e-05
2.66447394738173e-05
2.67080970882877e-05
2.22259980147333e-05
2.2282392246927e-05
2.60931695720787e-05
2.62498445104584e-05
2.14882126810011e-05
2.15773261470791e-05
2.65686421629438e-05
2.68801677072561e-05
2.16146228575404e-05
2.13334175634889e-05
2.69258298700179e-05
2.73963573900489e-05
2.24516702324253e-05
2.2095960309954e-05
2.78170751708487e-05
2.88349328676663e-05
2.34742710275546e-05
2.35897142263733e-05
3.01050461531027e-05
3.24806603301808e-05
2.5481169172415e-05
2.63631318520278e-05
3.62560353005384e-05
4.28413837023794e-05
2.82888400696457e-05
2.82522270778074e-05
5.38299242369733e-05
6.69715740758981e-05
2.98849670620515e-05
3.08075120128283e-05
7.79047485269385e-05
7.88759483275942e-05
3.03233380772202e-05
3.59834949786769e-05
7.99957006942348e-05
7.83427118836522e-05
3.24856516412513e-05
3.06247768480563e-05
8.12480852474055e-05
8.04392495574375e-05
2.63870191915763e-05
2.71377237890482e-05
6.96299270408461e-05
7.02932248078958e-05
2.65971752926929e-05
2.5027407528117e-05
5.32941362871112e-05
4.68058047168724e-05
2.53048092077544e-05
2.34845668616278e-05
3.58793964302703e-05
3.39577091800982e-05
2.32677088061221e-05
2.12851538853574e-05
2.99283860707596e-05
2.92275487650663e-05
2.16577601956613e-05
2.01207189160987e-05
2.76368419108234e-05
2.7230857122845e-05
2.08589712817252e-05
1.95527546672887e-05
2.64505107341061e-05
2.66728008276747e-05
1.99491270918305e-05
1.99411780817073e-05
2.62049090224954e-05
2.5806873256031e-05
1.98608655965488e-05
2.05743789272678e-05
2.54608980007962e-05
2.64061837748615e-05
2.04239893614105e-05
2.02681709773685e-05
2.64164687517039e-05
2.54040674884639e-05
2.05368214603014e-05
2.04642239523627e-05
2.54735317386912e-05
2.60804554238923e-05
2.02519020158053e-05
1.96943400838897e-05
2.61762179192901e-05
2.5774349625647e-05
2.02654861909755e-05
2.07567190570133e-05
2.65232006419558e-05
2.67971562641206e-05