/*--------------------------------*- C++ -*----------------------------------*\
| =========                 |                                                 |
| \\      /  F ield         | OpenFOAM: The Open Source CFD Toolbox           |
|  \\    /   O peration     | Version:  2312                                  |
|   \\  /    A nd           | Website:  www.openfoam.com                      |
|    \\/     M anipulation  |                                                 |
\*---------------------------------------------------------------------------*/
FoamFile
{
    version     2.0;
    format      ascii;
    arch        "LSB;label=32;scalar=64";
    class       volScalarField;
    location    "800";
    object      omega;
}
// * * * * * * * * * * * * * * * * * * * * * * * * * * * * * * * * * * * * * //

dimensions      [0 0 -1 0 0 0 0];

internalField   nonuniform List<scalar> 
162506
(
1.03451140642284
1.07661982177839
11.7856351484969
12.4495955335898
16.6335714704185
14.2585703986234
1.59027512051341
1.21832521019343
12.9040129663191
13.6380659859067
14.1861245377433
1.10881811890153
1.11131671162971
1.01921564589691
1.00298020984625
1.0060706383066
13.0955832776828
12.3548789064516
1.02202812329983
1.46606851061171
1.66572441794059
13.3401689861758
12.7729296158616
16.5121417737985
15.9606933558561
14.2447932321908
14.3964002062247
1.00632417546622
11.8143756388694
12.5091827077217
1.00241087176863
1.00026637085456
1.00199745293044
1.00002294800729
0.999894480893996
1.00379875119816
12.2940992937529
11.6840029967083
1.00902060823837
1.61901842677906
11.6729974033781
11.6196993926101
1.4710196779028
1.67965400206288
12.4313225178937
12.0560066669714
1.13995491416748
1.65959469081104
14.5181255183862
17.1148226704961
12.4965712415964
12.7377033255059
17.8384614997785
14.994302753967
1.81332862455194
1.52611508306915
13.6490028993866
13.1535642449895
1.44843428144077
2.41222167072511
13.8170722659216
12.6470114826344
1.60133044328057
1.03328972843594
1.00676600745349
13.9019360264943
13.0361244437595
11.6869158690206
12.0024580866608
1.00216328186885
1.00816375880162
1.00253190292138
1.00060271475918
1.00199223673853
1.00655178406301
1.00760940948432
1.12008360186998
1.31298988772639
1.84971994745088
11.9884520940346
11.9532605235701
1.5324013663066
1.00559826590854
1.001790306465
11.8114412067702
11.6054414937629
13.1762210622027
13.9108967833428
1.00388380884535
1.01000362775211
1.0001177173065
1.00011098602296
0.999955628880218
1.00000181962668
1.00047019105663
1.00002768385287
0.999912156920112
0.999839431204063
0.999860184360623
0.999923078189789
0.99991300982163
1.000047345967
1.00906670928143
11.6805824954283
12.2896222740277
1.00372032455398
1.00227566787403
12.496594251059
11.8041478714395
1.00620004864185
1.46887985363424
11.6100199424084
11.6697584390915
1.61850630416893
1.88056610218786
12.7244948628593
12.7292530725513
1.88180434604277
2.02042454894857
13.4199648335162
13.0096081960223
1.8074253550761
1.21735058235937
12.3969392435051
13.5338476329979
2.28592981458106
3.11166243216947
16.2309170364839
18.9490431096211
13.5103129398319
15.8230952433145
21.7773454458587
19.4480065682886
5.72827457621573
3.60464843732384
16.8257498552339
14.652285128827
2.3357324205463
2.66059984729144
15.5961472560507
14.9065293751211
2.43032655891138
2.66618467283068
14.6605844297975
13.5245932297053
2.52094321526839
1.83661411244322
13.2115020086706
15.2974366859126
3.19406132631883
2.0770275479414
13.2957415461735
13.602068760538
1.88367078738493
1.01321983368691
1.00525622805771
14.9669423962368
13.9111836576666
12.8154071511756
13.6253564145049
1.0047721029173
1.01060959066387
0.999925116351084
0.999940175984234
0.999911624433205
0.999769534356875
0.999802935949531
0.999922010942272
0.999975850848562
0.99998613729435
1.00050464191522
1.0000736086634
1.00035592114482
1.0021349741832
1.01995820143561
1.00330901738546
1.00433195556372
13.07394941158
12.3333041661234
1.01948450935151
1.07035983819715
11.7628796946455
12.0304694175746
1.13312167443789
1.67636177262931
12.4187725964885
12.9948431976009
1.80499529027382
2.01896938030744
13.4132758877315
14.6137037211863
2.73500422143849
2.74787725609548
14.6352653735051
14.1965469136002
2.60861156919936
4.38029093393438
17.4532100084069
16.5670913889223
4.19649278067083
4.86902210421957
19.8262581635335
20.377568680624
7.56520329075818
8.23108685736934
22.4226051299414
24.53873015355
7.94559023319046
5.94796508406748
22.6293764698479
24.4155514614524
6.83571230323186
8.93988468336502
32.1975220771973
38.3473602893205
11.0841096945278
12.3822480464682
34.461724175255
37.3122143543522
54.1381402513161
32.0018607636967
13.9696806889595
12.638753309
30.0771685579062
28.5537284838454
12.2447135132454
11.8794662275564
29.9721670873791
40.564676440071
29.1483928744787
27.441443695877
9.20547240342402
23.9757903960023
32.5244682481208
28.646288139794
19.6722249065491
7.81891920724093
24.4908116847205
20.6068747523585
6.08287781915399
4.32475560794748
18.8775375746507
16.6885294618789
3.1999221259288
2.95987769135508
16.0787463261694
15.2883826081618
2.75583568758718
2.07571612980328
14.8633731078767
14.1534857443051
1.98353567658591
3.52581595478429
17.1323345664495
17.1379412665161
3.48581985728613
3.09092160038037
15.3369715390842
13.2263778124119
1.69013719615436
1.32003392038882
12.4084189300806
12.4014253818706
1.32872272981204
1.01034387006913
12.8009994525902
13.6086987917874
1.00482128880467
0.999955099081055
1.00005121138097
1.00101021190692
1.00003222001772
1.00459144419568
1.01696273159611
13.8699303048375
14.9182942108812
13.8559395943503
1.00534248149962
1.01138160893016
13.1299495894488
13.2725958793999
2.09852715079931
1.54314495402658
11.9440083380736
11.9906310388835
1.85635078382617
1.00790288572721
1.00225598844925
11.9725405263918
11.6715594815434
11.5794549831156
11.7742794627939
1.00203043032835
1.00591022854364
13.0125232190241
1.03252472232854
1.00643532829564
13.8643168141256
14.1613283682381
1.10204407457564
1.10379122767197
13.4366361773488
12.7321860929105
1.31369555694953
2.01800099104969
12.5954317962223
16.0140904350928
13.5478548872543
13.2671852572499
13.7992790561521
1.16681102139001
1.15138171845377
13.1131162864228
13.4797177922578
15.4106460636895
15.380535968389
14.4627939334182
17.0622304819285
12.4681532516344
2.09641904503172
1.55146931250617
13.1431944670876
13.6570870463821
1.65304457564679
2.26257801440296
12.7038599052835
17.7920602597236
14.9512360884318
16.2934148538475
18.9427557186343
13.6840730176176
3.75512410632113
2.36338441778536
13.5186562553631
14.1596720859801
2.5923919268654
4.3562509795709
17.2877608705764
17.8695770412189
4.4615990239977
4.48546018959146
17.9414434782843
25.4998627958983
7.22175459318701
9.75639032659624
36.5057937787717
44.8664239554294
11.2437269411125
10.8286594402564
43.160131477008
52.0920662198848
16.250585744894
16.1001376585251
46.9554568310009
40.6746639106786
15.5409021753239
13.9855903187518
34.4361922688524
56.513326426182
41.2216062387885
43.8618157094455
54.5480133118977
36.0526009080385
15.080770552685
12.9391189491179
34.7741949916727
32.4201241075229
12.8034147843008
12.0706795213397
33.971226900797
32.0832300293765
10.4324069538151
8.95287116527402
26.6986835198599
23.8998395510063
6.92382184038048
6.47923488803257
23.807261502429
21.757410408287
5.71752074165251
3.67188237201302
17.6668714109941
16.8705729233589
2.62164133021062
2.19036103227862
15.6088477733014
19.5022723758634
3.86922370213066
3.73976773019321
18.3531739586456
18.3337670395073
3.74555017123948
2.0482362896769
14.8214531299844
14.0847844024865
1.91174728014291
1.91593503072639
14.0793628389457
13.2250050194196
1.69043485329524
3.1044273583601
15.3372083470673
13.5831059694908
1.91021882610552
1.25922676720033
1.00128800865206
1.01041971395323
1.01817105515026
1.00081977564699
1.00030753270355
1.00016527198871
1.30022479509897
1.1191936951797
1.35729592945655
3.21761208690607
15.2979869019596
13.2092300637593
1.84653922992157
2.52976163078155
13.5313941571666
13.8231916126472
2.43045458948099
2.47205256370706
14.9296644830463
15.6585107003517
2.7600461287731
2.55228708848932
14.7300950359297
17.1685542549404
4.02699334435563
6.29873135415074
16.4061700840295
21.8708662499428
19.6319293142773
25.0733345597032
28.8458968303798
20.91990221619
8.656860866987
8.15129587003463
21.0107144487753
19.7414921757053
4.89570721529982
5.97748288912483
22.1123547557165
24.7820701433211
8.62719688543988
8.89713444591762
23.5316428703598
26.0070079681716
10.0167814182954
29.1686821374503
33.5296653192698
43.4679749074915
32.4679218321303
13.5294015140587
32.8248224341926
34.4755740662913
14.806527609386
15.970896156055
39.0586829722851
39.4440525876048
57.6531208331802
41.1131420636387
17.5164045048463
14.989852274614
36.225782667787
38.1869555071823
13.0359380722362
11.8961113170713
42.5460421431802
44.194601533849
11.7011346642587
11.335073113317
45.037324231097
45.3481209323219
11.2926346708829
17.4195738852549
54.1900023885619
54.037252852259
17.2441589011349
23.3486108016941
71.408258316267
70.0014295361455
22.3447418341716
21.5129102951737
67.1428983364566
62.6353873018822
20.6831050928711
18.4594619183714
57.229370254194
50.6730191330486
18.5466028285828
20.9531429077251
59.5349144384489
47.0136566663311
56.0140965110069
37.8576837232416
15.9117533351093
13.1900420597292
36.4489724721885
40.2649638168579
12.3543400281928
11.2927864939838
38.4664184481339
36.0895429355817
11.1355727394965
8.26579122913617
30.4490357912374
27.8445575943816
7.59316916473795
5.11681892844576
3.31849876702181
1.67693343264981
1.78021910496325
2.29299187612451
4.54844040167655
23.4465191106378
22.5422184480426
4.70024920291241
4.45791865591749
24.4092414420038
26.6804702948311
4.93957822246109
4.90127920842417
26.080596213276
28.2895011517082
7.48800296062291
7.2372151275229
29.0031023702747
30.314828753951
7.14976935684228
8.75556267785733
33.1838439867883
30.6037330412882
9.06135934588997
7.05128365766803
27.3167023266678
4.74699502844558
9.43933610092179
30.5869338380244
38.1763578494906
11.7934328191372
11.1792250554457
37.0490733426602
31.2546466862048
7.74502997757574
4.84601726222238
25.4125657062359
25.6192832935057
4.79473339711191
4.82563867340519
24.620010593555
22.584579258596
4.69216569573969
3.9786849972471
20.6809704838806
20.6445289534424
4.00332259215691
3.88741211064266
19.4683337485656
15.5074343700821
2.12247956094025
2.12949415664001
15.4929362605246
14.812719229495
2.0569189080877
3.760018222201
18.3120047140081
17.1300894909857
3.50282678744564
3.53833645248539
17.1283018009619
14.14309958122
1.99325708177643
2.6784469233117
14.66558969334
15.2818598926816
2.75806570099431
2.94220758613787
16.0348051842842
16.9463057386544
3.51369641858113
4.74527117794451
19.4353636994068
21.5864512756506
6.78875683376824
10.0435360863893
28.8417400762932
31.787970141619
13.513120123128
15.0203565287388
40.8201706414486
43.2491548727846
16.7970795218549
16.415645580911
42.3817694597427
47.1531175123043
20.7873902076683
20.8367625690445
49.8184653612573
47.535740272021
18.0412237091848
19.6512572487591
52.3307573872026
61.8650619460637
85.4117048349125
76.2921368404466
27.927487476959
30.6908010726063
78.289210892325
71.3667752035457
28.6167114905475
23.7695735637319
68.0227208495775
85.5397732440443
55.5440859511332
49.1746067641826
73.4746761564455
53.4717319049967
23.5457100293156
21.6421599333887
48.6658372109363
49.2830456089059
19.1599068414195
17.6697488391988
52.2891938854198
53.3301044090305
17.764343986289
17.522651849081
53.8436929811991
70.4463098463689
24.2161382406704
24.3440786432817
70.8191112209946
71.1285483927254
23.7017558820184
23.8428832990254
71.1741875511946
96.3637465015941
34.5787811269431
33.87848728884
97.0492874022903
95.7658418206113
32.5653764707023
30.6832229724332
90.7240399482843
79.0964844963041
26.2238281907329
20.5296370804738
66.0005466021235
73.8016644276552
22.9472983747208
23.3510070933869
80.736914195442
83.7874549975542
24.333280443463
22.0968000018721
65.3064689681847
49.3645673295858
58.1639706361623
39.2755625731311
16.6818263596097
13.48287480723
37.8996016443275
42.2949420172835
12.6098215460719
11.4105026741299
40.3309550297939
34.3252294076133
9.19912525858444
8.64931802835812
32.8793229587
5.82424984209239
4.05716780503226
3.84315712317574
4.60389451060793
2.65952734132029
2.29899588712323
2.06317305284083
2.22868779463126
1.45128339371705
1.27248250477299
2.34862061960796
17.5292949083666
16.8676936407437
2.23262691204682
2.16981129384775
16.1810420029497
16.1472533010361
2.15327218586247
3.9751367344995
20.4910479553675
19.4159765996533
3.90510325902762
3.82419944358785
19.4295279455939
15.5312529337813
2.18300108456529
2.89737266227694
17.1087342049398
18.0302774565093
4.05209931298137
6.48927109055542
23.3511512187839
25.7298230501943
7.96639907564805
7.66118051373047
25.6651490582292
30.3760111644227
8.71347217025219
11.6668612899064
35.3627935978998
40.2741852772142
11.9820581679158
16.3074554361373
48.3622891456056
56.2099513697822
18.9532522467678
29.3453944353963
83.4763554945812
96.8265708724519
67.1668156738105
65.9367857603833
95.6111584999749
90.4605252146614
30.6113627015613
36.3431494632795
105.46029453882
106.087587523432
42.175689963734
41.2253531743228
107.55730969322
131.396963533674
46.1226749653976
53.1661332944443
147.586086080702
142.414934995877
50.8739666373284
51.9953477167639
141.387428458301
143.800144549095
52.5103337530182
52.3904059325234
143.929229793699
145.021176194924
52.3266176973403
52.5634170290277
145.253277865634
145.559229273608
52.7586369669383
52.0763370833286
146.108592311395
146.241621919944
51.5382359453365
50.2745268247685
148.139354272601
151.471140850717
50.3428419503917
41.4336905682383
131.418146841627
96.5431219988682
30.6205660627908
32.1106728111852
108.314284395228
113.734312936881
33.828196218272
36.1279138300336
120.513049855055
86.615333225609
24.72823726667
25.9929292588051
90.2474018719352
69.9013257727704
23.2000283112856
17.3796894282514
40.7934886362929
61.4845615903228
51.7826849288884
54.4751868700017
65.6006816177201
42.8249830606831
17.9048038313556
14.2913980815972
41.4651327310928
39.4147776235181
13.7635259554415
12.9700727743258
44.3946367788036
42.2868584323916
11.591723051704
9.43713012097142
36.3331984020735
36.597764797961
10.6978326348921
10.3443800038225
33.8867071175938
5.72124409655509
6.36121764454472
4.98218742231949
2.31411111014595
2.48121879962872
2.20189057042387
4.32146451914566
24.3355098726282
23.223538570561
4.20934286902211
4.13150725232162
21.9532377257176
1.91441942258849
1.16199649325722
1.14769204871573
2.21395694197834
16.7715903760208
21.5703557273571
4.02312727988572
4.03195558050731
21.7662149675199
19.7543300396039
3.56329752769551
4.47938518291839
23.1043224228916
28.042700215068
6.9537487498167
8.82399949436168
33.1647291163093
33.877350310021
10.5075586290681
9.04022701252645
31.3621524477877
33.1522925312721
9.31363941089177
9.7949067847835
35.5299784373127
43.0266297805385
12.5337620432445
17.3013577328782
52.3138038457732
55.2907776821591
19.3632004719224
19.5960590750073
57.37883104362
67.0141571624791
97.1074096030368
95.2683791444179
31.6842176120753
37.9110789276201
113.881778789218
127.13428338172
48.1610130904215
53.8998798665141
146.721541480668
192.673723194636
59.6820260322655
65.8998665583923
258.227540224071
295.108315136501
66.8702795098206
70.6970819013255
283.727388896429
277.250259627706
68.4250047241117
70.5047362467808
277.813136551432
277.005410826414
70.9553587984595
73.6823165506147
280.33561441587
285.009500820808
72.8872830247142
72.5404445261244
286.339246233682
286.248444672123
70.9725683144787
73.760600576593
287.321427768787
289.927358761015
72.9123838139911
71.755750579823
290.110386468292
290.162005181542
72.7049461902181
73.3882759031144
289.77798798173
289.275151068052
74.7178366686132
72.1033205778379
288.06992948137
288.43984756916
72.8365983372049
72.4651791406938
286.630562890501
284.172445387635
73.0842016549217
70.4399966114498
281.269306759884
282.273244259398
69.6592257542931
67.0904854736127
281.880159354945
287.216966535817
67.8294373752131
63.7635772989527
298.848315190933
259.130309514895
62.4536840102539
61.9962182256816
247.736987779789
238.774165645918
66.3084865449421
64.9479749061438
232.993462773706
230.228483020048
67.3502776396699
67.0327923213846
227.442865642528
227.762223177233
69.7282752513304
68.7132135758317
228.154277630834
228.380528657466
69.622042035837
68.4409609774004
227.500971965732
227.755718811311
70.3181429009538
69.3357217570528
227.568138592091
227.725627691144
68.9088560880575
68.2638300822721
227.474380192121
227.235563870213
68.8033548096861
69.2309308547392
225.637401290223
225.174707948018
67.6430860551291
69.2643479300955
225.515477321342
224.949951014359
69.0343967420245
69.849913152602
221.693454055581
220.505656044765
67.1750795144728
67.7298988007104
222.22362832229
224.424067074186
65.7362045072159
68.8817945678909
230.976189401303
242.15914879892
65.161281985526
66.398629760119
36.5824605982991
23.9452671235308
13.3013734444968
10.5605240706565
7.12225484079938
6.01191476269668
3.57342056815446
2.8010797265748
2.46879555953509
1.85853235791436
1.80224931335535
4.13577007784898
22.6569562856854
23.3843137912959
4.32662403177064
4.54512939094082
24.9493117762963
25.1187913609534
5.06168284072557
6.76686001660438
32.493804352493
30.9133315186402
6.54146023148808
9.70636200809536
38.6437228574888
39.9233754143514
11.5086025265404
9.66686387756981
34.4530230926147
36.6065021270173
10.007239607424
10.3540707854256
37.3055199971673
45.2930945551653
13.4497659503466
19.0733429582927
57.7637544422817
62.8680485744165
21.2175999426038
34.9905168736443
75.5387512150975
105.862834697468
95.3241850889277
123.214856855439
39.7054564464354
50.1102582716129
144.619874598912
191.962906302444
56.9232030423964
72.4787656686731
290.98665750703
333.523386248891
73.4075810411019
73.9776538020431
314.925109144033
298.799720283419
71.3196233541733
77.1503202332537
292.102157009564
288.688263317765
77.9970433434618
82.2550912994275
294.722658910305
299.866030750431
87.0394531555573
92.3592734540458
305.773202702057
309.735848113089
95.2667955512104
98.8822666248109
310.557123619482
311.01134814438
101.383616290329
108.671650868029
312.969975916926
316.528254850984
107.355402788077
106.3644859645
316.256903146793
315.821375907478
108.105906040376
106.404286129506
315.395947733468
314.099027410718
106.52040109515
100.041227631842
312.280980619921
311.998461310292
95.2785847692746
90.9135133981967
309.730931469805
305.133314079269
87.7833212768492
83.4291631864874
297.871415527492
290.400475836712
79.0750767613249
74.372132055033
285.169153590709
294.76258907774
72.8129673651206
67.9539331078345
311.185945434917
256.593626934762
59.3057436596429
57.7029285981317
251.849197726696
165.970788431142
44.0747745558868
47.2839473807396
174.481762606155
189.650928313994
50.5230598009366
53.9332968399689
212.499773205249
129.268107009672
38.4106497196598
40.6497845166013
140.950202148941
93.5954770511184
26.2880350372424
27.3464827633039
98.5105530606355
75.2084562657129
24.1031789206503
24.6222036198214
80.7044834245666
59.0912038631575
73.2846646516884
48.9244188080519
21.0633935530521
17.1539758230029
48.0444562364664
51.6548052893132
16.1200717759756
13.4825449385301
48.5273135958618
44.4206047328004
11.8040893283385
9.65157809669901
38.1640466197026
38.5776668910748
10.7735100895482
12.2297815686707
45.7243000552414
43.2678337846801
12.2544401443307
11.3733127864107
42.1429537776931
33.3178527363019
7.09970774746986
7.11498719779645
34.2656971724387
28.4589827931577
5.77127705707249
6.21823387949492
28.4569648132652
25.6360574733784
4.48399662495128
2.57628882626887
18.8750336471953
18.1428218377772
2.48990449056851
2.50543605974745
17.9956344129968
17.3751013590297
2.34161053577162
1.27910464301022
1.47433452157814
2.00328625951914
4.31544862634196
23.7983170650094
25.3019782418539
4.58836998210677
6.27786855008125
28.1431758911889
28.3049719543739
6.16196781156561
6.64549445590849
34.3884186978959
33.4314086881127
6.50624342243733
10.1151248001098
43.6770114888462
41.6938426626414
9.94526416960361
11.7481463180733
43.0869417935617
45.4255774011587
11.8709537082479
10.2941776246221
38.2786101771896
38.9182285497311
10.8280875942668
14.3209195877699
47.641394128114
62.7648883909878
20.1239911641729
22.1211428443277
71.3766997795709
90.4907428079241
125.806306137915
101.559707402244
37.298647485312
42.83678618962
144.559374688882
173.317041914606
54.3202215509836
63.1476196996253
237.033460010648
343.565445892019
73.6587535947237
93.4548277233181
452.256388873535
422.290465495277
96.0774171980105
106.37683368999
425.001795846201
504.414300295898
133.561929461673
169.998982000815
641.717750187953
800.004513244179
202.041444995314
215.67959864714
845.712093330532
860.251498039325
225.889750818749
240.945505477326
863.625670591315
867.646413382375
262.640724577737
284.648502040826
865.870546002775
864.357313004285
304.331093665273
318.822331517874
858.471935573909
856.916673063564
331.546812243106
340.380930325273
850.858493461248
851.780940579489
349.468837256759
354.718721158927
848.663104045496
852.834760566361
361.887468464657
369.845260067642
853.299139928731
859.08792600092
377.890160101607
376.939460944459
867.668980086558
870.620067832684
371.524285805147
368.956801914024
866.556492069413
864.796075413394
376.491565963405
380.471426226806
864.446784621994
862.459233862789
373.337136068316
372.022654215083
866.328565134765
862.951827862931
370.340039369469
369.442509382973
865.442549356753
861.964185320988
361.22309189708
352.741416026818
863.587301731348
861.618349795243
342.960288945897
332.82621915704
866.756732943137
867.846993138622
318.930363239322
303.371942899769
875.149848457188
877.616303075238
283.110260423937
262.695639022863
881.945438106384
879.899819144963
242.586345959134
228.60926001404
876.760811083045
860.52945065951
218.158036731119
203.131932593683
810.750355588764
646.296211115856
170.923706644434
136.130597913921
518.175504800673
458.985081668161
111.21936713535
93.6969908931718
459.027824501675
325.565378217896
67.3004494154651
63.2701806273902
298.869727423202
281.40939769562
61.7178004547859
58.987927443918
265.341038619068
335.561023240872
71.258237024662
77.995969463723
367.154716160261
408.054068304948
84.1616739263174
100.083875519051
400.191893560483
434.990892707154
121.872814068646
161.086858917953
586.943604437787
704.796012673458
194.593443852774
207.46757751894
741.774603214709
756.167453190858
216.67528906987
224.596566869242
762.283022408252
768.449313131766
239.797293528133
255.767828144455
766.180982081159
768.110296000083
273.578900428357
287.786651260242
762.313736272279
764.47675366643
301.096344452787
310.818601895237
759.701106346221
763.394840735529
320.358027937355
328.197266649359
761.933306289132
765.969839057288
336.308552148085
337.246904630972
764.703764403116
767.627092987724
339.84704399934
340.85414047706
764.497973534888
766.479753104402
347.328554688874
343.417143153456
767.037931715587
767.693793933212
337.392612861823
339.730246674315
770.897283697588
769.115145371115
343.491547128337
344.349108416973
761.156208628869
756.665582785431
337.126609094915
329.42072623896
755.656049797077
751.469463671743
322.412452225182
317.49074221006
754.396810344109
751.54715550678
308.319628722063
300.146272872906
757.069107703283
755.366577428209
287.966509588186
274.678980438574
759.704606387934
757.269976089309
257.44259384972
239.486653942946
757.113901722078
749.77194212661
222.728678957045
213.875708089246
743.843242079334
730.412484207452
205.106403530411
193.02620077404
696.228122827589
582.228513435662
160.057009401958
118.542188001878
426.020885928332
482.83257618616
148.218196897096
174.390215600476
546.46825791195
567.51463722303
184.660327153544
192.597090808422
578.423783110943
582.498109507849
199.680344232231
212.094075409044
589.370568317267
589.60294451458
226.097695710081
237.847334215954
594.817905021194
592.083350098889
248.691715915035
258.608850083411
595.959191434542
591.393479801875
265.767056570937
274.113059122165
595.026438776229
592.707539213606
278.681357422493
284.721610568388
596.091399330767
597.492504248373
292.238045757766
298.133666839293
600.23868264861
606.832381061019
297.308408825525
295.412978409486
607.855035325847
605.602169771082
293.345646756334
297.181630834183
605.448361869544
604.826852514208
300.807606774532
295.983818565495
603.442489898196
605.62307214436
295.250939652045
291.802644559951
603.355980867015
603.620859194402
291.049321330219
283.714814320275
600.074509517145
601.144498111571
276.587767208126
268.373859085578
596.871778440199
600.870792817258
259.549867775529
248.719907600273
596.508262453493
600.625458381832
237.232272684105
224.783196487777
595.265000535325
597.334252971465
212.774468325662
201.128392786507
590.76776246932
586.456125886456
195.103911916171
186.913817718266
575.585872191174
553.667847166401
176.306872244591
149.396122858108
487.764407723744
400.25170610094
127.681159126804
99.8750859016358
355.25532908199
353.745234479437
88.3952129734957
79.0865093841047
319.209694221799
311.054158912668
82.9664016378881
90.547647102073
321.781200691321
334.119336683779
96.7032471266215
141.365784644592
426.529448827149
436.18859558499
152.726096420164
170.502977221646
438.825315668217
439.565979620312
189.557692456677
206.019541936495
439.631176884467
441.740831149343
219.308893829113
224.462782616747
443.706429184382
443.720233044246
228.729621828763
226.400845888748
444.709055399698
445.785529669057
227.225233610548
226.503128573057
439.82601133386
436.599568574817
214.505573778195
203.831326063627
435.822713284152
436.268980263517
189.501541575711
171.832293328981
434.661928732089
429.914375487995
152.715206990722
139.769838931239
420.349415955687
396.091385940793
125.692306900718
97.7250588217165
351.520737911442
332.934764537182
82.6765105791329
94.6846809611053
372.431877575222
375.992446450595
87.7821975654194
84.7789667919861
403.157174749769
315.686456569729
70.6857260133929
60.1087494617875
208.488684425016
298.662921352539
70.7302451810262
79.4273966187113
365.483134502401
341.522606651712
80.2851102912177
76.0908043190749
321.641379885524
310.012671935638
75.6272437751042
83.0527934156919
313.677864107233
319.588412943817
89.0509214906646
95.2939297921463
329.416246546738
335.661047200333
103.454406359639
115.368746790523
338.919537800608
339.876881226918
125.796664305969
134.928562915906
339.231598525693
339.168421237152
141.813955034118
151.419823883871
341.306501821333
345.029253138218
151.372327390325
150.692500182181
344.584475807459
344.011287696677
152.383085600665
149.272772579898
343.614097054138
342.734780555818
146.524318184129
136.712629613839
341.555147666444
342.490457221477
125.763440861896
113.878229972202
342.527840628474
341.252457740719
103.412006289891
100.003024050893
84.4191304003776
80.5750947479418
75.8886024069373
72.9515009548747
63.0315153229958
59.6869212613739
55.5725122978977
53.4228235693088
44.0082748533847
41.9642360930079
38.1480227033958
36.7307594889658
34.0742791237197
32.3870677908391
30.5917198964191
29.291036294939
27.1815273256124
25.4739730511872
23.5565146291654
21.919165438173
20.1282687283373
18.3430373309074
16.3094632953737
14.695909647586
10.2781600910633
11.5568324375883
9.23681728243303
5.88621293916665
2.86612424914771
2.03212617826669
1.42541866760563
1.54008228596869
1.62315701364129
2.63615302244497
18.7887160479411
20.7415563835226
3.89638968523113
6.81286759612883
28.9046829860169
37.5527360236778
10.8096644915798
8.29723657352464
36.1596077683758
36.9699167437002
7.00241395957129
6.57100418109231
35.3625792952057
47.443891340651
10.1397753375755
10.2162485241526
45.6469647176242
47.7103001029077
11.9674815392918
11.367397314675
40.9902271661269
42.1368753726347
12.2113831075086
15.0312714418865
51.2869990811415
67.7526525496671
20.8207281309722
22.7216330694014
77.3085867689643
100.153627862119
144.753799105742
114.967118424941
39.0408928079929
45.174852549325
172.704696746844
223.706078249333
58.5588974475051
69.3641095024624
362.185127338345
552.723297099519
84.890392497028
140.005172632794
826.268857769089
775.615156390014
141.968712437193
171.099539665107
836.670634322743
1113.84913602039
217.201378348589
296.529994972627
1602.19834266198
2128.79595916155
402.436809849063
437.434722552682
2238.59695729252
2241.64287865526
437.447957374857
444.622122051531
2197.20572489589
2125.48518326078
461.448148204857
481.537715678738
2079.34444130382
2109.99859293449
471.497597956011
442.331031046084
2158.81704927835
2193.44485001614
415.741277148582
408.190919034556
2218.27309862327
2224.48163622921
404.917561999131
408.896212759731
2229.87994413916
2232.40454342614
408.415342111911
411.052214535854
2225.178664093
2240.63022393779
417.21810790186
416.349584493556
2246.36026126157
2273.89588887765
416.694147925492
412.525188630525
2264.72472311446
2243.79786920446
412.927528065412
416.71219671726
2246.09966462945
2247.48307105898
413.650118054222
415.304373912981
2257.71544216385
2244.17816295971
414.887617050308
414.923481123224
2254.36536889823
2257.90952271839
413.218714492628
409.134916262378
2253.77064894581
2246.14711903707
411.029900943588
417.735037798596
2220.850722688
2185.9620739008
443.808806303522
474.961747836946
2141.62762831157
2115.41550112936
485.79248939375
468.717674482132
2165.71404961732
2238.82385364835
457.378523076846
455.783164887149
2283.05116488367
2274.41797581058
456.53873875312
413.294962043917
2151.6734276635
1608.92565793513
299.379237115745
218.613869294887
1147.918645649
908.879255476932
169.801398193019
145.01015059037
843.355636110015
524.675015285696
83.3098138958666
76.8541968140012
449.021711132269
401.130488986124
74.6570280449334
69.478014004914
353.923655155803
529.299753857129
101.413730980268
114.396137851807
620.645839361154
726.840016592898
125.945149881495
150.400538804179
766.276570119839
943.296567292344
187.325924701521