/*--------------------------------*- C++ -*----------------------------------*\
| =========                 |                                                 |
| \\      /  F ield         | OpenFOAM: The Open Source CFD Toolbox           |
|  \\    /   O peration     | Version:  2312                                  |
|   \\  /    A nd           | Website:  www.openfoam.com                      |
|    \\/     M anipulation  |                                                 |
\*---------------------------------------------------------------------------*/
FoamFile
{
    version     2.0;
    format      ascii;
    arch        "LSB;label=32;scalar=64";
    class       volScalarField;
    location    "800";
    object      p;
}
// * * * * * * * * * * * * * * * * * * * * * * * * * * * * * * * * * * * * * //

dimensions      [0 2 -2 0 0 0 0];

internalField   nonuniform List<scalar> 
162506
(
83410.6974214291
83411.3419106179
83411.0256390874
83404.7748268769
83399.0249955806
83381.7612028898
83401.5536493297
83401.2406073637
83379.8180734602
83456.1709734674
83459.4761162216
83430.871015683
83423.3882638207
83417.3891033433
83418.2431558987
83419.0557851106
83419.2395327814
83416.3377587766
83417.953917683
83420.8141678358
83429.092325511
83427.418437096
83415.8969721715
83430.7922490018
83443.7223567986
83457.7969569617
83461.9101894057
83414.5543869569
83414.4325005045
83415.6341135341
83415.3533672006
83414.4436863898
83414.1069288603
83413.3980727266
83413.4757301014
83414.2207437939
83414.424797894
83414.188391241
83414.0419645882
83413.1140085965
83413.1335544097
83411.9672220054
83411.9118596142
83410.6416497322
83411.5478768941
83410.4874870623
83409.0694645746
83406.9206300534
83395.2276677842
83402.9535758839
83408.8765745924
83412.5839461339
83409.8315201585
83407.7087683649
83412.1086578143
83409.7244214215
83407.0775087335
83395.6942783895
83404.9018889368
83407.3710074172
83407.0543453519
83398.4499652026
83404.8842068534
83413.9698148358
83420.7902846713
83433.5009618969
83414.3160589539
83408.6817453358
83421.63278823
83413.9061811972
83411.0504483635
83412.7339063676
83414.004781113
83416.6426362323
83414.5502775784
83409.1520756587
83407.3670837795
83409.3166195401
83409.0346221814
83409.0086073658
83407.2527877295
83409.2937797768
83409.2888009803
83411.0704315413
83415.7698745158
83405.6395395567
83405.5630109911
83412.6787302272
83409.645020581
83407.9116928743
83409.2111477895
83409.7051993649
83410.7802736914
83410.4072008895
83412.1160223501
83412.5294102212
83412.1366903195
83412.017545463
83412.3608125804
83412.4653869815
83413.8007284677
83413.7419590645
83414.3696418177
83414.503567203
83414.7167018022
83414.511785921
83416.2009475728
83416.460977125
83415.3359715461
83415.4381036541
83413.0180143651
83413.0420700128
83413.5159341659
83413.4820852722
83413.3731496827
83413.870037966
83413.3683554806
83412.8579591348
83414.5890878455
83415.0528516678
83413.0116725665
83412.5033985585
83410.767831859
83411.8173293978
83412.4954956959
83411.8023052788
83411.7284400465
83409.4915833519
83410.284500184
83412.1565413942
83411.158945005
83409.6116894328
83413.7478307622
83409.7670405236
83405.0448652444
83404.9088285863
83406.3560519641
83408.6272000544
83407.4283221719
83406.3113746503
83409.5798236133
83409.3953195981
83408.682925346
83407.866138335
83408.0968700902
83408.8955975096
83409.1707260211
83409.0003605416
83409.7873910694
83409.7732208084
83409.1440952521
83408.0612737495
83409.1816461235
83409.2849178418
83406.6165555164
83408.0242727331
83409.0404635729
83402.7732264857
83405.1500398728
83408.8264244155
83408.1401851561
83407.6175789141
83409.3182272681
83409.3912764359
83410.7132146081
83410.5550422811
83410.8450622092
83410.9992302259
83411.6993320618
83411.3449648891
83413.1473886782
83413.5111165421
83415.3495418261
83415.0680449746
83418.7583550709
83419.5989047594
83420.3249738061
83420.5265118871
83417.6805435768
83419.0552958484
83412.6602400171
83412.3519936924
83412.5827225004
83411.1939855194
83412.229271762
83413.0869992844
83415.1105958531
83414.5433920862
83415.2980199489
83415.771798892
83419.3367792347
83419.6248235345
83418.4573961749
83418.3111490947
83415.8077993998
83415.6164783633
83420.4073485561
83420.4242708405
83413.8660066989
83413.1915356332
83411.3864399906
83412.7647539597
83409.4295150463
83407.7718358799
83409.3634024736
83411.9249961123
83414.5364374532
83413.4941515568
83416.7514393602
83418.6579690281
83428.3581580485
83427.7783034089
83427.9860363247
83428.5781153181
83432.6274428129
83432.4488491132
83418.1904773522
83419.3749281519
83416.9362086217
83416.7606957081
83419.1408608543
83415.8394149427
83416.2153617054
83430.659807781
83400.824103332
83411.682887311
83411.1218325153
83413.2470397727
83403.3494001902
83396.5851726272
83379.6743303798
83403.9191123714
83407.5140154889
83395.8345491811
83400.4168136022
83406.9565204946
83401.8830217121
83387.2971053666
83375.0006437047
83395.0950462587
83398.7983163874
83398.1538768048
83403.3125390698
83404.517284596
83403.1511146315
83401.5977467055
83405.5615775061
83406.5856485463
83406.1991218969
83405.9428202638
83408.7775292998
83408.4067498759
83408.5173126838
83408.8201611439
83409.2454673739
83408.6538482554
83410.2618309111
83411.2648623162
83410.6660954158
83410.1509573368
83409.4786471291
83409.0177026822
83409.7297564589
83409.8810245611
83407.6402738158
83404.6216563319
83408.6254952107
83408.1702728651
83409.5727916167
83409.4847731421
83409.1733084694
83409.5763702737
83408.3736840969
83406.9944916154
83402.6308679224
83409.2716980655
83414.3428273329
83410.7236119984
83409.0748661603
83407.1756070574
83409.6147532056
83410.4349367391
83410.5381978964
83408.3007128481
83410.1578077587
83410.5096109012
83412.7659821993
83415.6465061958
83424.2367106646
83411.2094993439
83407.4148115673
83417.722662702
83412.5434401958
83410.662719008
83416.2476099623
83415.711552126
83422.655693927
83436.026452438
83462.043399455
83432.8611705937
83425.1982187429
83457.5466368381
83381.0593696132
83403.355207522
83403.8310702797
83407.2442455929
83402.2375558115
83383.9707172764
83458.9675536631
83458.1070767875
83431.0109844582
83422.2050482565
83417.7218987388
83428.9255357374
83444.2317503806
83432.1594167252
83398.987969824
83405.7635294986
83411.1848324235
83409.3632301106
83407.3233706041
83398.5357775253
83410.4876356186
83412.9811890234
83414.950330068
83415.2062309341
83412.4509032239
83411.1626510302
83414.5169760289
83414.7240621287
83416.5045614597
83416.2268635804
83416.0789242191
83416.5322149649
83418.5420664027
83418.7067335191
83426.573816962
83426.1883902826
83428.8483820642
83429.2103849451
83426.6337648021
83426.2875671543
83441.2059956259
83441.5664321697
83459.4029052317
83459.3601170954
83477.1692349255
83476.7766464421
83452.2521099892
83452.8433600042
83462.6585030853
83462.0437255903
83435.1326053482
83436.9817364983
83419.4288120118
83418.5909823156
83414.6128389872
83426.2187789304
83418.2408311273
83413.9006633835
83393.9971258079
83395.4595280175
83398.1672757938
83394.1190967684
83395.2998783798
83407.3768062001
83440.4231011713
83419.2787153146
83423.7166330362
83449.1629408265
83436.7252466841
83419.3028534532
83402.1089074021
83390.3316539564
83434.6931164829
83407.2423870244
83394.5378528465
83395.0583749885
83382.6710438066
83387.0176821428
83395.8832846321
83392.9644867625
83393.1690867099
83395.348708911
83402.3674931358
83401.2919642179
83400.6900512268
83401.0413826899
83405.5242548925
83405.478090824
83405.4336790421
83405.3871409202
83405.7749544163
83405.46219009
83408.8075143538
83408.6504755706
83408.9433989941
83409.0086601789
83411.6540094224
83410.6496964861
83411.2855533949
83412.5680521831
83410.8786402328
83410.3019417022
83410.0088225169
83409.8890648393
83410.1371537272
83410.5247226237
83410.3724877219
83409.9671716971
83410.4684891386
83410.5127513833
83410.4833850305
83410.604303103
83410.9688647728
83410.7525071841
83410.5511034391
83410.7622779176
83410.9613818264
83409.8257927127
83409.2829854975
83409.6087120276
83412.6368580355
83413.0481788023
83411.2932949576
83412.1068784267
83413.456814066
83411.1345192961
83412.1452520741
83412.7271832114
83416.8405985394
83417.8424727077
83416.3142739179
83420.3115125711
83398.905623704
83410.6273375762
83417.167394207
83413.0706851369
83419.3011625972
83421.1287041103
83423.8412531443
83421.8905414333
83428.9448560989
83430.4142809539
83429.2669973211
83428.9645919119
83423.2508009786
83425.3903627622
83421.9824800593
83420.1156845856
83393.9891604252
83409.5572608987
83421.0664464938
83433.6597066428
83431.5742491593
83411.8498961354
83417.777844458
83436.0898525861
83443.5756132892
83449.5105883308
83435.0747652378
83438.0925265152
83444.5187859585
83441.109764319
83445.0782822596
83446.6561382492
83464.1745087127
83463.5749766381
83485.3866772321
83485.8464118521
83503.8107047297
83503.4966096568
83507.9939214448
83508.3214200371
83497.8543179691
83497.4350505033
83537.2270443088
83535.1790282028
83500.4361930859
83501.003747544
83505.7358879878
83506.4658781312
83480.4912717233
83479.1932698708
83451.7975788117
83453.2885015924
83437.890586993
83436.7117924659
83418.159862168
83417.7176186455
83403.6563100166
83403.9146707899
83372.9554636796
83372.7623535395
83364.3021836615
83365.5438176032
83364.5319119569
83363.6890885537
83362.8473626198
83365.9375883085
83364.1442593668
83362.0870948211
83359.2130381584
83357.6111620446
83389.0372872868
83388.0588193416
83380.2010250175
83375.577176128
83405.6503681665
83403.4017012423
83405.9536465192
83397.4037233521
83404.5420917486
83387.791574933
83366.4228461961
83369.9987381183
83354.411772667
83392.067029449
83366.0239772161
83356.2094448124
83425.7560532993
83420.7015951654
83365.2815844058
83370.6842644289
83393.6766086065
83393.4018280979
83369.5742756698
83362.3634647404
83407.7050478924
83380.6877332753
83351.2966854309
83359.3871157433
83383.0245088105
83374.522698039
83367.3214226745
83368.5854858255
83352.5671247231
83367.5967165011
83360.8587059643
83354.3279962346
83353.1659066448
83340.3083630558
83338.6088199738
83349.2013717613
83323.7126478161
83330.536060569
83313.0082630116
83292.8495742404
83318.3181875112
83319.8885659472
83358.3825479848
83358.3196117805
83383.3987441605
83381.6557873487
83393.6710963755
83393.2580134506
83392.6321153345
83393.1638717885
83400.7774349498
83400.469148751
83400.7302119483
83401.4068917139
83402.1200665396
83401.3604001847
83405.8682189801
83406.2521224161
83406.7805162006
83406.7632222278
83409.8875235332
83409.4964753003
83410.0336146844
83410.2170817664
83411.2019730608
83410.6924384493
83411.6221110551
83410.9591844675
83409.8560304902
83410.8020460073
83409.0877618017
83408.0430863208
83410.5651158345
83411.3319096824
83408.2945379911
83407.6451373436
83385.2225021523
83406.9294818043
83421.9871500584
83406.9189737976
83400.9125144862
83426.873840782
83453.9537509157
83476.3298099516
83477.7117016184
83455.4238404835
83452.3783111952
83475.2118644516
83467.8911874555
83448.4026119301
83447.5004297992
83463.6814007652
83461.6369445551
83444.2831105798
83430.423162131
83441.9801349552
83432.4096352419
83432.9100935144
83430.4747652225
83430.5442955164
83433.3507102605
83431.5697264138
83440.3926606327
83441.2295826344
83443.9920931162
83441.772062659
83449.3684962796
83459.0064036372
83458.0374390215
83454.5780442396
83450.9083692319
83449.7402805903
83454.6623026209
83456.1484454637
83482.9021568028
83480.6882396299
83515.382968898
83515.0291995714
83545.7025505036
83547.8581721331
83556.5184203921
83553.7269010814
83610.8636417015
83612.195155759
83596.8247533469
83595.8632766727
83571.9314704934
83572.6859936655
83544.6138615631
83544.6992420574
83560.5211775954
83559.5325525469
83513.0027496755
83513.7815229583
83474.9430655011
83473.652672899
83444.3767016748
83444.0878338282
83424.4934506412
83424.9602946487
83408.7628523039
83408.7784234337
83391.3659649339
83391.3846303539
83370.876744048
83370.5909261298
83344.5931119068
83344.7418023275
83334.3304436459
83333.9390660613
83333.3968688591
83334.8002962491
83334.0781681654
83333.2613842812
83333.9912567007
83336.3716424245
83337.3794355145
83335.7833637266
83336.8136560152
83336.577855057
83334.3161436962
83338.1446344663
83357.6843724076
83350.4144845753
83363.359904752
83368.0829467925
83378.0984779179
83371.9667762217
83363.8429392461
83352.8715632972
83366.0384092979
83379.3025892274
83379.9085567866
83365.4238698953
83359.8836588761
83358.6365420554
83379.4822256489
83381.0764357113
83394.0235090523
83392.7827989478
83393.5718446496
83395.0109973853
83395.6277879629
83394.7376724368
83402.3274204032
83402.7173157178
83404.0374422889
83403.6540865488
83406.134985609
83406.7887579354
83401.5525374216
83400.1930714966
83402.7543801819
83404.3232257429
83395.7950864615
83388.5306878922
83396.7507045913
83405.3264360882
83423.5428318515
83446.1382334796
83418.570462106
83424.4672099734
83444.2521746747
83457.615809736
83421.3729428151
83416.8347737509
83423.3325817937
83433.2172678346
83416.1299951733
83417.2087375724
83414.1883944218
83414.0141080704
83413.7413618862
83412.5935208967
83394.3653209403
83395.1968961455
83396.3096012933
83396.518108313
83405.6458745893
83404.8194952168
83414.3247689116
83414.7246857745
83431.8038072806
83431.2339665246
83454.7922694595
83455.6890403737
83494.2216436171
83495.2357405254
83551.5965707007
83549.3860145513
83609.6625772309
83609.9567393707
83669.9989070003
83671.4385623461
83709.1323079616
83706.1323513874
83725.0805679636
83728.2042987103
83721.577258581
83718.6328269095
83684.4924165407
83687.0871996411
83637.7820247847
83637.3899824597
83571.1038358249
83569.5241387843
83510.0888159569
83511.9742213734
83460.3789123767
83460.3780921204
83426.8513972267
83425.9851474754
83405.5765067807
83406.4847187154
83381.7904783427
83381.0893395476
83347.4089095242
83347.5741278516
83310.866987798
83311.7583844147
83316.0134426006
83315.8268657254
83290.6498281129
83290.274863497
83293.7098461938
83294.4754032753
83303.1874363909
83307.0717713583
83306.3124578196
83302.4813229306
83276.3296569551
83282.1283537752
83284.8302148328
83278.3312877519
83282.8328340433
83288.9511500757
83310.650554221
83306.4244919105
83310.3373461287
83314.3369784549
83319.0890430131
83314.1705905086
83316.9758181104
83326.7797746767
83325.3675064155
83316.4707247788
83338.0561737308
83338.1649533663
83334.0556719931
83336.8051749369
83334.1918584668
83330.072946201
83320.8861088716
83322.5626598646
83325.1508827976
83326.7316701156
83357.7805724735
83357.9952306245
83379.9285663327
83379.4165045804
83384.2048966022
83387.3275618785
83389.5102650946
83382.3328886397
83380.4413112456
83381.621178149
83382.735696028
83384.6343214871
83383.3939266728
83387.9988827992
83391.3004641385
83372.1978359407
83374.2725998688
83388.4246479521
83384.3126016365
83389.295222998
83391.4247279493
83398.4673859478
83393.0227871613
83399.3406834664
83399.1821004618
83403.9608864625
83407.0149111241
83378.8437838824
83383.655260471
83384.4249590991
83381.0731908433
83381.331766242
83383.8210993081
83399.4653586684
83397.6818089695
83376.2559152941
83371.8784106858
83373.2470538628
83373.9935479376
83374.3277980527
83373.8601395195
83381.1837695981
83380.9496085777
83387.3391634238
83388.0463991548
83401.2456860752
83400.8631012059
83425.8162066525
83425.5386760283
83443.9683499793
83440.5356179871
83448.532795772
83451.5317598803
83476.4183485319
83474.9917427689
83504.0154092899
83505.3726123314
83539.506706915
83538.5682271175
83583.5339605419
83584.7197178597
83628.6437786184
83627.9635074543
83669.7858878545
83671.0795058494
83708.2608259359
83707.3708775397
83737.8347506668
83739.0512191121
83755.7337999482
83755.6512011994
83768.6109972337
83768.7358701239
83775.4676158278
83775.0274847131
83769.6777433802
83770.1092394419
83754.3331958312
83753.6654274271
83730.988548221
83731.4112596938
83703.7761749029
83702.583480624
83663.8095718014
83664.5200639084
83620.6506253429
83619.5189833504
83574.0044708285
83575.1332285083
83532.1515337291
83531.1942334583
83491.0339740356
83491.8698840239
83462.2962681014
83460.9616961993
83439.0484143795
83440.1723359338
83418.6768284926
83416.3803942453
83408.291652748
83411.1410181097
83418.1021195545
83416.6578128103
83456.4755921132
83456.4295806508
83475.7274097238
83475.7941406212
83510.2257289591
83509.8294961049
83541.1452683092
83541.9940625613
83586.3635021164
83586.7299745738
83620.5497607806
83621.2245935214
83667.5222904865
83667.8703494758
83694.9672368544
83694.599676667
83720.4431734251
83722.0212450146
83739.1954305748
83738.7222467413
83758.0588706338
83759.8504594022
83763.4921656187
83762.0420085142
83751.1712202105
83752.4393817467
83742.6743374084
83740.1960726396
83727.263816861
83727.8895776787
83706.7244468801
83706.0051735337
83665.6749233923
83665.1038776059
83634.4532763324
83634.3949054963
83590.1885700052
83589.2169791597
83555.7161003284
83556.1585576677
83517.0442134711
83517.2676990574
83492.5979647232
83491.9210705125
83449.0312236831
83451.9470677783
83450.1822542595
83454.6126558387
83452.2054527228
83450.9040002982
83445.8412016283
83431.7788120168
83410.5953626104
83386.350392104
83371.5472540271
83369.0088307467
83377.5713618324
83366.2484062989
83361.3764897387
83360.835890166
83363.3140255245
83363.5036992033
83323.9588130163
83326.4460784086
83324.2326971456
83322.8875399486
83333.5581932619
83328.0578291115
83369.2301785556
83363.4560858266
83367.6760284569
83372.2550626319
83373.5112340561
83369.5438421846
83374.4197507441
83379.7995691937
83340.611226836
83336.5169770211
83337.8788874016
83342.5717483519
83342.2622844581
83338.8676138447
83334.1610834295
83336.5321734434
83354.6527991025
83350.157318751
83347.1505941459
83348.8960867374
83348.1017736301
83346.7905814364
83350.4054214964
83350.5465168922
83352.1644762706
83350.95200827
83356.8864031486
83357.9670451585
83364.7648317726
83361.5060997409
83364.3979893634
83367.1916439444
83381.5342203286
83380.872947432
83397.1566336188
83396.9402882029
83416.9747277082
83416.7083346784
83444.3297043422
83445.880088438
83484.4130182644
83482.6189404452
83536.7605812962
83539.9796772667
83596.9258148424
83592.8097155191
83646.3814884468
83651.4650521426
83693.8728557203
83688.368176489
83722.9689630028
83728.6954263587
83748.2724599231
83742.3811482202
83755.8791331999
83761.6761811343
83764.7914118999
83759.1037677583
83753.6323567122
83759.2485879741
83747.0037111022
83741.308020049
83715.8723855841
83721.726789541
83688.8595352288
83683.290923129
83636.5610656285
83641.3788036863
83586.9184769387
83583.0164579593
83524.3543316181
83526.8501362504
83474.6077133432
83472.9990997189
83431.6446011066
83432.314117876
83405.8554559205
83405.3068634179
83387.6155390052
83387.6833317688
83375.5675063191
83375.4772020399
83369.266047265
83371.053645138
83398.7181718301
83395.632031977
83394.8044352425
83396.3614355007
83349.0958210307
83347.9190344386
83299.2085062397
83297.2394410384
83248.808734155
83252.4394792122
83277.3303346962
83275.8995823222
83249.0840120127
83250.1513834097
83265.6027243586
83266.263865507
83252.4663732348
83250.7184894214
83262.7285350225
83264.3385649035
83249.5698701248
83247.8211507578
83260.3533790317
83265.9233767538
83269.5158256545
83262.9476030641
83267.5895788093
83274.7172541926
83278.5510454604
83272.9644862698
83274.9739258882
83276.7353645125
83294.9815008568
83290.2040092447
83292.1368344473
83299.3370661426
83299.0731269766
83294.0590524127
83294.5063296765
83295.368278015
83315.4758916181
83313.2386222639
83311.37257242
83309.1929354296
83305.1200114061
83312.0393228216
83296.9289057162
83287.6736509972
83287.3374125128
83291.0133595182
83295.2720317668
83298.9267957222
83296.0169061927
83293.9455406789
83289.7142630819
83293.6957770611
83327.5528607693
83326.0074701299
83326.6380768337
83328.2556249464
83359.7503332066
83361.420068821
83368.4155651287
83322.4954671508
83322.0749295289
83325.8960782308
83327.8040396878
83290.6631176032
83287.4707442265
83283.9919989191
83287.465309575
83278.3808419869
83276.0960175532
83281.8152973898
83276.8070754308
83314.5769429267
83306.3519626564
83307.4497646253
83311.3535221805
83333.9003375101
83334.5022177607
83335.0605309494
83337.8323685673
83305.9721815889
83303.3153886251
83298.2694257193
83302.2768041196
83298.3756847528
83292.9658575768
83290.4273308036
83295.1165024685
83286.807392858
83282.4084614651
83292.97113884
83299.8500254706
83291.1785003498
83289.3930282699
83287.0359449106
83287.3698254182
83280.9268840318
83281.1753614474
83271.6615516618
83271.3687930987
83256.5572749713
83258.0386821372
83255.791701696
83255.4506618269
83242.9030782546
83244.115810416
83228.4928775705
83228.2363365635
83203.0911159849
83204.3195014697
83180.5493945883
83178.9976046383
83170.1484028026
83170.4450788356
83155.1767515572
83152.8902939545
83136.8395831387
83139.4089377698
83131.2847752603
83127.2986240431
83127.8562693063
83131.7759194431
83133.9024032702
83128.9390532969
83131.1371116545
83136.3680122765
83138.2510435197
83132.2921852627
83130.0593737049
83136.4539438157
83134.6437768725
83128.0162594127
83121.8599291838
83128.9946926712
83124.7521085903
83117.4625288715
83109.8772071999
83117.394591095
83114.4305778216
83106.6006153055
83100.0991831095
83107.8547027822
83104.9861001703
83097.0920579656
83092.1522768188
83099.8194710329
83099.2194207233
83091.1042126118
83088.5690008446
83096.6962730039
83095.7513681214
83087.9950079897
83090.2434150456
83098.0608690809
83099.3118276396
83091.2575516105
83095.6325031007
83103.6377770424
83105.1106141093
83097.489802812
83103.6300788443
83111.5002660739
83114.5454465245
83107.0347399347
83113.4036419155
83120.7496474337
83123.3665159892
83116.2756424324
83121.2643189641
83127.8858994613
83128.8805447088
83122.5866941035
83123.69265379
83129.5840602592
83127.008166006
83121.7463440722
83119.4948767879
83124.4589538509
83122.2043562141
83118.2162067091
83117.5218828429
83121.5935604106
83131.7299959111
83129.114623783
83147.2522455742
83149.5130410494
83166.9356621607
83166.7974767035
83177.5331675304
83179.0273192552
83207.9506189041
83207.2611567684
83226.3409242007
83228.8396789946
83246.7764435071
83244.5883285479
83273.6830505627
83275.1433157707
83309.1115204685
83308.3145802326
83340.3566029926
83340.029278392
83342.3780941292
83342.0858795414
83304.4123090365
83304.9916418292
83266.1959699111
83264.6113913134
83254.611978547
83255.2607657769
83243.1110968024
83241.5554704334
83200.2088746488
83198.6741674529
83192.900056187
83192.9669262459
83182.2947873884
83183.2776369152
83182.197609615
83180.583960357
83189.6905026755
83190.8207279702
83204.0179886372
83203.4175907158
83213.936400816
83215.3256002415
83227.1661467218
83225.8003097531
83231.7310674576
83234.2524248675
83241.0858015728
83238.6946326052
83240.1984549221
83243.5634704419
83248.0567771539
83244.9024406956
83243.3739344208
83246.6781007148
83247.5792770949
83244.0214234725
83242.1983977028
83244.3907435613
83249.0733146482
83245.9670260368
83244.2236480585
83247.8345271181
83244.3071960488
83241.4889380744
83240.4613915156
83243.0098032221
83248.5289189332
83244.9625412773
83246.6087404789
83249.9036616339
83244.839495356
83242.6178109634
83244.6635209162
83247.7595071687
83249.7156965453
83246.677350503
83249.5660805232
83252.9732472906
83249.4280918773
83246.3362387612
83248.2746075036
83251.3469723783
83250.1858587056
83246.6783317038
83246.6487774862
83249.1965417098
83243.0196740667
83240.1856330941
83235.195493638
83236.8192410841
83225.2190125909
83223.6292576857
83213.5086354948
83214.212847848
83201.7365252134
83200.442218982
83191.526306174
83192.63440442
83191.8708984638
83191.3356947828
83199.9109123268
83199.7687430614
83204.3724598854
83205.75520509
83247.1286533028
83248.5364551671
83250.3762029954
83248.6867597927
83255.4870337856
83256.1427812235
83258.796892061
83255.8949433129
83266.4489087492
83267.5349868055
83285.2828962665
83282.0899074227
83306.0880496476
83306.0194296512
83326.6348599609
83324.2526175276
83346.5601252768
83346.2770218656
83361.8529357531
83359.4614262233
83373.8710822527
83374.6236160591
83383.4553796151
83380.7568115943
83386.3736390629
83388.2414736236
83393.6692206646
83391.0382853116
83400.5517619055
83403.2846870903
83404.3225670517
83401.2492338059
83397.3974156248
83400.9446025715
83401.9685873481
83398.533912396
83409.3646091261
83413.2335504908
83412.8872800981
83408.6175308184
83397.2899459471
83401.1298443376
83400.6459417477
83396.8767154576
83404.6827636583
83409.0281364144
83407.1134065886
83403.7760986876
83394.0369263666
83396.5795319514
83394.0883830756
83390.9725482698
83388.4412687788
83391.1598215378
83386.3794467363
83384.7312988012
83373.0450860583
83375.8513496693
83364.8714314242
83364.1719025779
83349.6810593905
83351.9909936043
83335.9706360501
83336.2787449788
83314.588190377
83316.7124055375
83295.3829555324
83295.4838956029
83269.8210243567
83273.1640524632
83256.4561333553
83254.9090561594
83246.0568270505
83249.0631368793
83247.4364374322
83246.7681015032
83241.9255548229
83243.6275129486
83309.939767669
83307.2736076221
83303.4496027914
83304.8418440113
83303.9355920953
83303.5557481013
83348.8602091619
83349.0697594076
83359.2330444511
83358.5211837219
83377.7787991737
83378.9796677543
83416.2178485406
83415.5149597884
83333.2120668861
83336.6844948336
83385.8525339551
83382.7119416911
83443.0638315074
83445.1359609957
83494.2028277722
83492.2526273077
83529.2968569085
83531.6213072083
83554.5620958679
83551.9910029137
83568.9671560369
83572.1302983124
83577.3748366759
83574.7193578897
83578.0380970166
83580.7849002848
83580.5265792601
83577.6456201739
83569.5038012973
83571.9771366064
83561.6014386729
83558.826629779
83535.1372974622
83537.4832076735
83504.506290312
83502.4829056173
83454.2514933083
83456.3448495861
83398.6705350235
83395.6815389675
83344.5626095766
83348.131794058
83320.7338327533
83318.09974213
83314.1410332638
83315.2593487147
83308.7591906462
83308.5137430812
83254.2328726438
83255.3736619084
83267.2765883423
83266.9768740146
83276.111207059
83276.9958392853
83283.2103765244
83283.0429025998
83305.0123253671
83304.575324976
83312.6263124382
83313.5903566725
83310.4585283894
83310.6200255304
83308.9268910347
83309.0508779039
83349.4416401133
83348.427330239
83357.335719512
83357.3769253091
83369.8899823713
83370.2827441933
83391.1697898561
83390.3799435478
83427.4445521429
83427.9460088358
83482.239781495
83483.3587804914
83544.5962845631
83542.0132703085
83596.8119493992
83600.1574213994
83641.3245587983
83637.5342986175
83669.1957279304
83673.109697151
83690.0845603464
83686.0662814213
83698.1164103268
83701.9733756086
83704.0550559872
83700.2344530708
83695.3306385924
83699.1431595023
83689.0526760401
83685.2001402581
83662.0097071409
83666.0323812984
83635.4939561553
83631.7681094093
83586.2707150572
83589.6905129621
83533.3733495484
83531.0075779213
83469.1523862741
83469.7838351061
83476.4673680582
83484.3724322508
83494.9194698942
83511.1171171303
83522.1758630467
83515.7236781495
83502.6439401344
83492.4276476228
83477.8832239862
83464.8649509309
83455.7777052849
83447.6799044992
83445.3590878511
83443.4685083021
83446.6018673476
83448.3352010255
83455.4699792684
83463.860742276
83472.3876375628
83478.7989124433
83477.5798507903
83470.4232107665
83447.5028914381
83407.2854727823
83377.4782402134
83356.8635832674
83270.8344523157
83269.0011233698
83267.3135784511
83324.2330369832
83313.5484156406
83321.8303662985
83275.4089690849
83270.7478939907
83287.553545438
83292.3741626322
83273.0529290509
83270.8242247425
83271.519439804
83273.0122576914
83260.9492974763
83265.8277684374
83256.6415823995
83236.4144075888
83242.8426583471
83256.8495047028
83266.0875392483
83274.6444199725
83269.4853415031
83266.5437792102
83281.6377354244
83280.7786244696
83278.97180307
83276.9265296823
83269.3615660262
83272.6572247544
83264.4173741871
83259.6905277215
83253.0589280424
83257.8601108061
83248.6994754787
83244.7220485604
83248.2587513079
83255.918488741
83247.0700313451
83243.8593933929
83241.0126622055
83243.2763723874
83232.9339528647
83231.8526447236
83221.5738739832
83221.7648274629
83200.7157514857
83201.6030053895
83187.5243086216
83188.4330554441
83169.7722035207
83170.7538654135
83154.2269463957
83154.6091799784
83130.2846168905
83130.1060940082
83103.8220841114
83104.71358835
83094.5224008109
83094.0349437877
83092.4219667747
83091.6039944548
83095.4666631181
83097.0586041678
83132.1698387401
83130.852562674
83231.0586729153
83232.2246429634
83367.0674966918
83370.0271366636
83424.5207304757
83421.0116472023
83363.6471278026
83363.6094689761
83227.7180117751
83227.0097206707
83122.183081025
83123.4077140086
83048.4502770529
83047.9515735048
82994.2109212386
82994.3776283775
82954.0973190596
82954.0406190878
82925.8645977565
82925.8823566983
82902.9121034346
82902.9919493215
82888.5359932535
82888.3377313025
82876.1691573791
82876.3465102143
82869.7967688102
82869.6197971844
82865.4357796978
82865.6741051499
82865.3927549327
82865.1612756871
82869.1855981831
82869.3960216361
82875.2055122385
82874.9888820905
82887.0202088154
82887.2004238228
82901.3139085354
82901.1714692111
82923.6085247929
82923.6942412955
82951.7505917533
82951.7854499033
82991.8425935628
82991.489334414
83045.7503418788
83046.5097670135
83122.5333767925
83121.1405401771
83227.8761053921
83228.8550870367
83365.0206592244
83365.3413321113
83417.9492032534
83421.2976621624
83361.0380069722
83358.5755642984
83223.2751796263
83221.6112389791
83124.071812098
83125.9766013132
83094.4858649546
83092.7766608574
83090.6261153153
83091.7432759976
83095.7803333624
83096.1728493425
83107.5378774193
83106.8941291812
83139.049328692
83139.6602044616
83156.0835101089
83157.6006107338
83179.6418471284
83180.6339221428
83184.5082826069
83184.7274619163
83200.9871498491
83200.4961874842
83216.1938668211
83217.2147063377
83198.7275399999
83196.2476262259
83175.7036950507
83178.1649641396
83165.1050521667
83162.7849769959
83144.9434375566
83144.9708858201
83113.183846843