/*--------------------------------*- C++ -*----------------------------------*\
| =========                 |                                                 |
| \\      /  F ield         | OpenFOAM: The Open Source CFD Toolbox           |
|  \\    /   O peration     | Version:  2312                                  |
|   \\  /    A nd           | Website:  www.openfoam.com                      |
|    \\/     M anipulation  |                                                 |
\*---------------------------------------------------------------------------*/
FoamFile
{
    version     2.0;
    format      ascii;
    arch        "LSB;label=32;scalar=64";
    class       volScalarField;
    location    "1800";
    object      k;
}
// * * * * * * * * * * * * * * * * * * * * * * * * * * * * * * * * * * * * * //

dimensions      [0 2 -2 0 0 0 0];

internalField   nonuniform List<scalar> 
209453
(
0.0158048119602188
0.0168271473360527
0.0223831699415641
0.0212621356004834
0.0165574145565713
0.0164654993974154
0.0208299939254289
0.0201789062937778
0.0197706984533076
0.0157907082878416
0.0160114263651961
0.0155311492384009
0.0153833406886314
0.01546034013905
0.0155982396474048
0.016172258007264
0.0211262555616802
0.0208377271293002
0.0158861426986755
0.0159750924770006
0.0222451655032
0.0223610998067892
0.0162943424619029
0.0156832460500449
0.0155350357319977
0.0156200118189673
0.0157720374671007
0.0165427715715877
0.0236472341931085
0.023549482320338
0.0161772941805173
0.0167393783838444
0.0247214879750434
0.0249206920054903
0.0171701806856777
0.0173114253900503
0.0253211938337299
0.0238006706363565
0.0169741658280172
0.0171465083331756
0.0234349256908108
0.0226894058718458
0.0171520394240245
0.0169903058382476
0.0210299993532135
0.0196511088316037
0.0165794981211319
0.0160329670547019
0.0186255446408363
0.0171719314764614
0.0155530687330357
0.0152644656633588
0.0163347279154794
0.0157512198078923
0.0153141786989662
0.0150262950397363
0.0150622858437057
0.0150494555071122
0.0150148278150022
0.0150111363474557
0.0150081629159874
0.0150231934565898
0.0150384233318089
0.0150745661884546
0.0150476784367544
0.0152259558032752
0.0163415772527734
0.0163916097605507
0.015258461624104
0.0150607516428229
0.0150872172710549
0.0156036963247633
0.0157018223747731
0.0152726564765036
0.0152904935607161
0.0150252626495709
0.0150264927524657
0.0155448816679404
0.0171624402231247
0.0169934078820821
0.0154243502498176
0.0151092473661054
0.0151671168759369
0.0151829722153787
0.0151177709063083
0.0154491666034567
0.0156440997630156
0.0156660672192216
0.0154657624371611
0.015323779237738
0.0154462186902184
0.0152039154257418
0.0151313449034016
0.0150871735312799
0.0151274361166575
0.0152115554996138
0.0151446685705421
0.0152011908970011
0.0152674373177705
0.0153159860246276
0.0152606917028775
0.0153294206977733
0.0153915988944118
0.0155301247063694
0.0154187644330137
0.015780385976739
0.0160059401707431
0.0163354428674581
0.0161720374434598
0.0173926190988943
0.0262358853480563
0.0263034025427779
0.0176860263032063
0.0178005377237817
0.0267312301529581
0.0258509598793848
0.0174971277262689
0.0177582636787984
0.0267370003594921
0.0276190022081106
0.0177826883226382
0.0178457784318508
0.0273452675899381
0.0278072058608968
0.0177390391147257
0.0177962605779217
0.0280183437253131
0.0307062746527988
0.0193219890421102
0.0188954947381368
0.0297795311521057
0.029037275160354
0.0183290795681349
0.0185403674410988
0.030775351245859
0.0299241419070106
0.0178333347129726
0.0174067318794097
0.0269024631211352
0.0246796113469138
0.0172490512679201
0.0168038690032749
0.0238091176606662
0.0221856982678615
0.0166956363915199
0.0165816456721788
0.0207670658291272
0.019544272046081
0.0163203811392011
0.0162471632624543
0.019402346563387
0.0184879219971294
0.0160178534665133
0.0155545963706596
0.0172471425796951
0.0164286449770229
0.0152819521457388
0.0150548270656095
0.0150201031625296
0.0153218679782865
0.0158280092242342
0.0158364272572288
0.0152869895765415
0.0150116267555111
0.0150342857448291
0.0150180212551117
0.0150078781934208
0.0150132654620802
0.0150342512812753
0.0150387115157042
0.0151489690702918
0.0150953375580381
0.0151871080580185
0.0164385929254485
0.0164407599822393
0.0151168150410753
0.0150163948649244
0.0150045130545797
0.0152883782833572
0.0158302092657258
0.0159096354793792
0.0153437156676238
0.0150013389899985
0.0150126203558924
0.0150085900396854
0.0150047223194032
0.0150025637034636
0.0150049989388921
0.015008591921093
0.0150037982531837
0.0150053446674011
0.0150157696224269
0.0150105869100589
0.0150050272824753
0.0150033234291719
0.0150043939680389
0.0150016818146736
0.0150013735770028
0.0150032648914326
0.0150044013384615
0.0150088012275777
0.0150061226831591
0.0150074648680663
0.0150168283953113
0.0150631023351986
0.0150327163565497
0.0150198249129213
0.0150293368072706
0.0150757556018204
0.0150561391915924
0.0150821940244589
0.0150998632608109
0.0151327162150121
0.0151178760590906
0.0151572362588598
0.0151923759839944
0.0152353900406186
0.0151998084469813
0.0152431790529303
0.0152812192223659
0.0153341545022435
0.0152910443203949
0.0153448113969318
0.0153873563520146
0.015668471246266
0.0155513053397922
0.0156318843803418
0.015730378340841
0.0163819102761395
0.0162301500282638
0.0162310174717782
0.0163742371244342
0.0176259383955521
0.0177201121579474
0.0180755863389952
0.0177932356992714
0.0177336902419967
0.0179618527676378
0.0192943958024051
0.0321942751262667
0.0312299729147007
0.0189182223592321
0.0184010021024963
0.0308695380076063
0.0323815377653442
0.0185796866505251
0.0202445547405412
0.0344488288190677
0.0342246698103529
0.0196437726121344
0.0184340785593918
0.0310389173498265
0.0280343116948688
0.0173043644678783
0.0169415693860094
0.0256636751873193
0.0253273044121344
0.0164366885281924
0.0163867264436803
0.0236291972813069
0.0221421427285765
0.0163742817826957
0.0163754182796629
0.0207219052366001
0.021135704170083
0.0164337301260704
0.0163605215178935
0.0194959659856576
0.0192716711816677
0.0160934829259411
0.0157615380297451
0.0184038573521978
0.0172328692147319
0.0154241841079094
0.0152511646457443
0.0172105488843096
0.0174151812330137
0.0153793575770987
0.0151596449229349
0.0165732359000308
0.0166609615805802
0.0151422876690507
0.015011240942948
0.0150038409379304
0.0153738830080901
0.0159613326260253
0.0159023040275846
0.0153415418082061
0.015002309100775
0.015008874836336
0.0150059676737056
0.0150026323110476
0.0150025958416419
0.0150062425837068
0.0150063950362172
0.0150024605712717
0.0150024474999506
0.0150065153246959
0.0150068099261861
0.0150017155884383
0.0150009471201832
0.0150008546089478
0.0150046654722363
0.0150051550065889
0.015015093291808
0.0150127919830424
0.0150307127430418
0.0150399003937787
0.0150869051858742
0.0150689041822716
0.0150939845076467
0.0151069339612476
0.0151363375618607
0.0151273152554239
0.0151144139006185
0.0151249416093733
0.0151585466653161
0.0151487195484624
0.0151546416595655
0.0151692906347233
0.0152068675741558
0.0151912649391913
0.0152285966956865
0.0152452271971192
0.0152820818381346
0.0152657948503483
0.0152856258080454
0.0153023543723784
0.0154080614835726
0.0153665971039403
0.0153746665427776
0.0154173549008045
0.0156997097883303
0.015587921640927
0.0156270841057512
0.0157329248174952
0.0157849320597512
0.0156968758259068
0.0162987482583269
0.0164420643828128
0.0164315877388325
0.0162889096116664
0.0164809860693614
0.0165948413220258
0.0178455278902739
0.0180997372258804
0.0194829930110321
0.0355350398992442
0.0335340398614949
0.0191770855998557
0.0199679519814967
0.0207776904186207
0.0382776223553766
0.0355868973834068
0.0340208868229209
0.0190955464866482
0.0197516583146251
0.0360603121124184
0.0386495229654508
0.0429880796385298
0.0215364885416414
0.0204075919568223
0.0193023918895791
0.0188116920926827
0.0188449355561966
0.0193091743788577
0.0204972550581065
0.0214610225037986
0.0457224879967691
0.0410255482281306
0.0432292056179862
0.0205658563511803
0.0207416794197624
0.0397996226068873
0.0397169178202812
0.0207805138882342
0.0207092336800074
0.0366092533352343
0.0204466828742542
0.0180811890230193
0.0204642863233577
0.0403049212575424
0.0351319782707771
0.0201557550062744
0.0195695565966612
0.0326978744788562
0.02955418531104
0.0175406528085554
0.0166031406585558
0.0272929067638854
0.028071286385204
0.0165672079279037
0.0164843381540966
0.0260433251035895
0.024280887966485
0.0164563400523318
0.0164496970673448
0.0227564901968746
0.0234891103042017
0.0165525570258333
0.0165795229352486
0.0213925836182534
0.0205311057641493
0.0164123400486495
0.0160193113279475
0.0197792197016021
0.0189778293910642
0.0158646149311631
0.0158741501501838
0.0196711252597528
0.0181593287767107
0.015465232369563
0.0156208956601678
0.0185623258589237
0.0186799957322525
0.0154691003096269
0.0153448767215157
0.017531618319519
0.0173243763325021
0.0151401929379784
0.0150692657785136
0.01655559485946
0.0165525980106867
0.0150712145845466
0.0150132152356487
0.0158998335013687
0.0153411553028177
0.0150033678365563
0.0150038614140395
0.0150084559022783
0.0150072129814494
0.0150026328715273
0.015002399669625
0.0150075979878688
0.0150079467842667
0.0150022068979652
0.0150016480932859
0.0150126060001455
0.0150063734123614
0.0150049180061509
0.0150002379976939
0.0150000541988393
0.0150057503963383
0.0150043024211874
0.0150224565816958
0.0150379790670112
0.0150785613754883
0.0150528147557394
0.0150159487713932
0.0150226230521827
0.0150768747594571
0.0150479683865832
0.0151020680525747
0.0151408615745865
0.0151669125745476
0.0151327106393505
0.0151734473600597
0.0152059722372108
0.0151435618446593
0.0151312608896051
0.0151671546956452
0.0151790712915489
0.0151697341956152
0.0151614112115929
0.0151954083302555
0.0152039272559387
0.0151929906150684
0.0151829390814076
0.0152174861327712
0.0152279954301223
0.015262184874558
0.0152514434717091
0.0152700427997733
0.0152817997877742
0.0153013354188481
0.0152844181452685
0.0153041916740219
0.0153225085694027
0.0153234234615414
0.0153052644051242
0.0153892447493274
0.0154295140003729
0.0154402934959202
0.0153997270591667
0.0154229465772859
0.0154640158335018
0.0157594087847234
0.0156600480925435
0.0157800851490811
0.0158417219898998
0.0165287814474385
0.0163880325815583
0.016615042152868
0.0167027934305047
0.0172096688770696
0.0171265487602778
0.0186174103257128
0.0183503754663916
0.0171528242184867
0.0168516777906356
0.0163390920919773
0.0158362199819173
0.0157258364547384
0.0157295243336877
0.0156757855324453
0.0156656418534023
0.0156313133361265
0.0157452613427389
0.0157307053509465
0.0162975409236041
0.0168624576362319
0.0268476209368051
0.0238096877668357
0.0164499952928094
0.0158104714752416
0.0218202146452451
0.0201162160491408
0.0156096078568645
0.0153210488632726
0.0193235467264298
0.018240689009786
0.0152209887043444
0.0152248646743367
0.0182248064906832
0.0173169832861306
0.0151434041305588
0.0153587866728893
0.0175243865694833
0.0166620256932195
0.0151468289387882
0.0150111923453039
0.0150055269571642
0.015372856972788
0.0159609659243653
0.0159108071715554
0.0150130678847537
0.0150018378140809
0.0153425004833692
0.015287084927969
0.015805549088147
0.0150152938100318
0.0150023407578303
0.0150034181044501
0.015008588435233
0.0150069614273502
0.0150030487388349
0.0150043873524127
0.0150095578237131
0.0150128067711758
0.0150588749167265
0.0150553203527264
0.0151641760922024
0.0165770347764066
0.0164011336928688
0.0150995653035244
0.0151582037148265
0.0163851296021447
0.0158073938176264
0.0152852766968991
0.0150065753640004
0.0150281688005725
0.0150147130387622
0.0150046559517399
0.0150097086171582
0.0150329096694573
0.0150441100391824
0.01500911794072
0.0150270163559537
0.0153128721942327
0.015739939992409
0.0150625481413809
0.0152805958157019
0.016315690520699
0.0162936734315651
0.0162772430692926
0.0151432667940237
0.0152525644516265
0.015060731228012
0.0150440785381747
0.0150190792525542
0.0150270028402962
0.0152725217195497
0.0152904668590452
0.0155948246509596
0.0156530507106223
0.0155925701382836
0.0154124861066642
0.0168737307558402
0.0169833435322546
0.0171594826756264
0.0155444791231401
0.0159815387309771
0.0185688364016519
0.0182579440989629
0.0179215560770517
0.015700235575516
0.0158416871119693
0.0156362919291463
0.0154204256377957
0.0151318396521668
0.0152000618465341
0.0152268059477799
0.0151505766098944
0.0153083112233486
0.0154450969401206
0.0156581530868712
0.0154367279441962
0.0156966413665958
0.0159197908247789
0.0189690049294907
0.0186178593842565
0.0195675974970801
0.0157364781229763
0.0159895423713982
0.0199250614302283
0.0205803103999681
0.0163907853451393
0.0164707794263707
0.0209939545413283
0.0208356573917515
0.0205972765386301
0.0158018459579573
0.0161211973560717
0.0155671414516286
0.0154197735502875
0.0152216069463989
0.015277003607798
0.0153264900394876
0.0152745784389913
0.0152149853019502
0.0152480291408707
0.0152903959294657
0.015255945194431
0.0152025334714724
0.015214790551778
0.0152510334249986
0.01523859733637
0.015229948501414
0.0152389828124996
0.0152736972016341
0.0152640639432829
0.0152829335919347
0.0152937943659842
0.0152817162595361
0.0152699174319148
0.0152897559866696
0.0153035564688204
0.0153033713158736
0.0152896645873176
0.0153098297961008
0.0153265444244707
0.01534497953322
0.0153242820273292
0.0153252404537939
0.0153458251527771
0.0154507448262093
0.0154109065528089
0.0154228820700896
0.0154582454898906
0.0154722198282383
0.0154385740930093
0.0154506528700529
0.0154850558699741
0.0154858066342226
0.0154515937656879
0.01568005870843
0.0157640219813593
0.0157885775772095
0.0157041760384969
0.0158106550645219
0.0158669578562762
0.0158720986836034
0.0158328741239913
0.0159157054228037
0.0158760751614756
0.0158497009794144
0.0157937913392344
0.0157900853949457
0.0158485895807256
0.0157677845805223
0.0156776452852448
0.0156671785081652
0.0157563088207484
0.015471549146481
0.0154350712168793
0.015434922922618
0.015471289196837
0.0154857203077832
0.0155217576904509
0.0155382563910253
0.015547247889038
0.015547112632155
0.0155615775245002
0.0155618436949372
0.0155635966815213
0.0155631253856105
0.0155716613808741
0.0155699637252702
0.0155869231052658
0.0156099192828388
0.0156128956510789
0.0156728624236941
0.01581281873181
0.0159010730721859
0.0154450482168671
0.0154717393753239
0.01618931897045
0.0237852381276607
0.0220998034293762
0.0159359996562163
0.0155757672495515
0.0205822112662867
0.0205526799815111
0.0157766980842339
0.0153605866949212
0.0192930868993459
0.0200037023854814
0.0156791479756458
0.015475876846939
0.0186406495471737
0.0185121823924697
0.0155234429486618
0.0153750394313204
0.0180440049735042
0.0180753763051056
0.0155749921816858
0.0153234812062767
0.0171242172901998
0.0172038983722429
0.0154687879059474
0.0157221779385031
0.018209791965083
0.0199873599871296
0.0163435353239496
0.0161649728543562
0.0192465454457817
0.0195369284499857
0.0165618438920336
0.0165846241864338
0.0201894079870928
0.0214807913870744
0.01687841268607
0.0167045139200947
0.0220789496094961
0.0220451466294254
0.0219981100001923
0.0158653287013733
0.0162154775630507
0.015638829958906
0.015491543177148
0.0155890344338312
0.0157365389428009
0.0153879451865378
0.0153339733559549
0.0154088392005126
0.0154713802896246
0.015335053858772
0.0152995699029864
0.0153446858148201
0.0153776760749905
0.0152861729210554
0.0152739982312296
0.0152933120288565
0.0153064040182995
0.0152937831785473
0.01528292489603
0.0153033603588045
0.0153164766181154
0.0153162817394001
0.0153031908341334
0.0153242596471976
0.0153407659373961
0.0153271643613814
0.0153102401152677
0.0153211079221824
0.0153354675952715
0.0153482454241006
0.0153350499024373
0.015334431707786
0.0153473718518992
0.0153472509881803
0.0153342961881838
0.0153483597492489
0.015364824783203
0.0153652832502758
0.0153486164292669
0.0153494689150145
0.0153659590829814
0.0153658292226196
0.0153493102040206
0.0154326187458767
0.0154656309855057
0.0154771349306098
0.0154462326832576
0.0154557211464174
0.0154876474477719
0.015500498007237
0.0154678409569847
0.0154693351318231
0.0155017746411097
0.0157737520897633
0.0156953617722027
0.0157309709824151
0.0158117362683325
0.0158908197856755
0.0158353140213464
0.0159032151597811
0.0159268193718308
0.0162621941622189
0.0162729379546577
0.0163083292185421
0.0162986143932562
0.0167788583076262
0.0167001420959915
0.0172304009472166
0.0173066828461044
0.018990856610405
0.0185879979163101
0.0208908745593949
0.0447424838945499
0.040855694065918
0.0203522696597746
0.020472744300583
0.0429308036407982
0.0451720715214888
0.020452391589858
0.0207329213927094
0.0430949609064127
0.0436072330210328
0.0208274143683956
0.0209029278023603
0.0487657793806808
0.0441268304688218
0.0215282800455198
0.0223772502867818
0.043430140454845
0.0379610638075912
0.0217035717154194
0.021494051014417
0.0375269916242207
0.0350395915470233
0.020818960881059
0.0203692826106906
0.0342764874520795
0.0366738815787937
0.0193380848454727
0.0180941705341455
0.0328652059733403
0.0303221105747739
0.0170749404778386
0.0168930377451168
0.0330975975561956
0.0301185135031357
0.0166735160485494
0.01660656410766
0.0274755745575629
0.0252855995539921
0.0165664866256495
0.0165723730057037
0.0242618239423674
0.0228047532172438
0.0165569310869138
0.0161627523273165
0.0216937852335417
0.0205092832440918
0.0161126702979757
0.0160587268872001
0.0204443311981601
0.0159894295940355
0.0161027743459513
0.0161624924249093
0.0218312309700969
0.0227400909571692
0.0161456488500555
0.016051197965755
0.0202822638145328
0.0153285096778406
0.0151296362494367
0.0151343224659098
0.0152868946082129
0.015937480249342
0.0198891797638359
0.0191134733367118
0.0156809281871077
0.0160323065103821
0.0194297452283411
0.0204126057507414
0.0164211201521162
0.0167966949784523
0.0211231970379649
0.0211286642613148
0.0166114037246245
0.0166571754741768
0.0217146172457747
0.0224657545977373
0.0170416767416117
0.0170280975426269
0.0231014910985221
0.0234127782750433
0.0169002031242604
0.0162608066618759
0.0159073351823516
0.0227983987901369
0.0232475579261007
0.0243605980056248
0.023908424309803
0.016501845780092
0.0169711131084132
0.0159410273527733
0.0157491168136941
0.0161477248709482
0.0164222788614735
0.0155841549359909
0.0155159677652072
0.0155450325464325
0.015610001565844
0.0153993178942281
0.0153665472537149
0.0153649519084255
0.0153967838869906
0.015306412253901
0.0152932422376118
0.0153141886361602
0.0153293989697543
0.0153290887750524
0.0153140630490098
0.0153357739298854
0.0153540656914327
0.0153413141903952
0.0153246972397903
0.0153362449279199
0.0153502327882248
0.0153637579421563
0.015351061292979
0.0153501988339804
0.0153628622658081
0.0153629589960044
0.0153503230677362
0.0153353959189276
0.0153485242378661
0.0153632110035624
0.0153506368036398
0.0153499619460817
0.0153626390919719
0.0153615132344984
0.0153491549365332
0.0153490060733761
0.0153613705221786
0.0153784909625628
0.015362914005037
0.0153633916401794
0.0153792893226427
0.0153797611825538
0.0153640595347991
0.0153639207313573
0.0153796227820654
0.0153936391916328
0.0153777544869034
0.0154582637201493
0.0154886826114699
0.0155030596548311
0.0154711070876322
0.0154833669400906
0.0155161638747521
0.0155178986177159
0.0154853820805238
0.01570794865615
0.0157846217423283
0.0158350029584495
0.0157539400289861
0.01585979455976
0.0159163173042846
0.0159583388548312
0.0159376815616598
0.0159742485805626
0.0159878584657023
0.01647609187892
0.0164746940833379
0.0164967286747413
0.0164930942000509
0.0168569086923051
0.0167880282036801
0.0173268226533906
0.0173950683834021
0.0188457509527288
0.0185892579994075
0.0207453020952678
0.0475655071115942
0.0429519048477442
0.020349037316012
0.0204097170442114
0.0463022918001963
0.0518154731548767
0.020776155728908
0.0186511079175693
0.0188715758263609
0.018952236574143
0.0187438911028242
0.0208684851786572
0.0569769789025609
0.05024659831977
0.0205174262617997
0.020713810466137
0.0542680383045302
0.0493166480685552
0.0204813396159138
0.0209221501241952
0.0479672448659322
0.0538575823018312
0.0213981859446915
0.0211516393075606
0.0550308954977839
0.0504118196363924
0.0239044508792596
0.0251895150495459
0.04861277300618
0.0415750557040408
0.023562638794234
0.023391312516458
0.0412549472074334
0.0384772666248234
0.0221645062223955
0.0204620244224881
0.0370695588945322
0.0432370224190339
0.0211362749708068
0.0197099414555245
0.0404638797392557
0.0449728725723266
0.018963811721656
0.0183286736782174
0.0404560569934762
0.0364657295527655
0.0173772233025437
0.0169614174875637
0.0339397744053743
0.0310330699595084
0.0167963117881815
0.0166963528940671
0.0284687796698073
0.0261642098191458
0.0166156738490334
0.0162395877895069
0.0244422048522016
0.0229175313485765
0.0161921359874445
0.0162060027626931
0.0230210469829749
0.0242608522365727
0.0164372591314786
0.0172906354676949
0.0257039610511443
0.0273736531950428
0.0175710028545933
0.0174068626573642
0.0281552807463821
0.0301945446499365
0.0178914290030461
0.0173568613931815
0.0298188431708563
0.0259251033144928
0.0166491393662618
0.0170571715996755
0.0256929960301471
0.0238427489621525
0.0162331346383794
0.0159971034480104
0.0221045171677445
0.0241992524780966
0.0165855971727063
0.0162754561518796
0.0216277044711847
0.0221132783923191
0.0168610707123603
0.0161227811180099
0.0207023038427672
0.0200648322375549
0.0161557194338358
0.0163403969682185
0.0209187196404619
0.0218096681015465
0.0167730852533602
0.0168877904551844
0.0228808541751936
0.0227290711157023
0.0167359514266196
0.0169334344446347
0.0233673204085589
0.0244064024874527
0.0173150675034117
0.0175524878940539
0.024878100319482
0.0247784488629514
0.0174294693277025
0.0179609683342195
0.0263573513172335
0.0256517595599872
0.0252072681976631
0.017148637584271
0.0176987395741804
0.018364111340499
0.0179114468317421
0.0268403475730146
0.0271572853539148
0.0279748438186211
0.0184746325275215
0.0187924394208753
0.0300475294975885
0.0292385604202267
0.0293358765345662
0.0189586375834121
0.0191193027694503
0.018522687725044
0.0180690163419364
0.0178095221111209
0.0183821693027309
0.0165062316472642
0.0162467712736046
0.0162310084160691
0.0164955881398985
0.01562232230038
0.0155514308492445
0.0155859847328783
0.0156549000928817
0.0156311484279161
0.0155710164482951
0.0153900478871432
0.015423330038186
0.0154166201015044
0.0153855943831065
0.0154062517348964
0.0154374331725245
0.0153548822432257
0.0153362902436223
0.015348481177897
0.0153641528469273
0.0153783748922853
0.015364173750482
0.0153630394847928
0.0153772328396139
0.0153765944601158
0.0153625601510064
0.0153512504984578
0.0153640028944425
0.0153799038888269
0.0153676402345744
0.0153670074264015
0.0153792098759256
0.0153780073425827
0.0153658829158325
0.0153660946758185
0.0153782035747714
0.0153938979930243
0.0153814447720113
0.0153654196669451
0.0153783158582877
0.0153773377526198
0.0153643235167479
0.0153633169526136
0.0153759553459133
0.0153757595104633
0.0153631440394887
0.0153767406420342
0.0153923989702121
0.0153935384511699
0.0153774124080131
0.0153778914980904
0.0153938340579652
0.0154080658980439
0.0153915350448568
0.0153913835413721
0.0154077817923458
0.0155002109075578
0.0154698349127735
0.0154858534436207
0.0155183273799348
0.0155318877558365
0.0154984196862743
0.0155009277057272
0.0155340849385515
0.0157961679303582
0.0157199518248411
0.0157757417221462
0.0158580832319479
0.015942290572964
0.0158841813884582
0.0159085747764807
0.0159682983977513
0.0160168877532962
0.0160035099969364
0.0160330389402361
0.0160461801711584
0.0166006134211382
0.0166126903736384
0.0166267046449713
0.0166045171717986
0.0169399201697644
0.0168818546965926
0.0174424436646059
0.0175064537721586
0.0176389278826841
0.0175742384703697
0.0177182474313762
0.017783424206397
0.0190556669652143
0.0188600042424032
0.0209958315140664
0.0631947313345687
0.0550034940932232
0.0206603270523642
0.0209956808527245
0.0600710141636493
0.0609599889119499
0.0219231306687397
0.0212995483713886
0.0612716816152521
0.0577967898727367
0.0242858940425285
0.0265442531134716
0.0614439217282173
0.0556055558515005
0.0269150092460069
0.0271733426008312
0.0524375578230659
0.0452228379246113
0.0250491720121476
0.0247411202093941
0.0445357984661808
0.0484130533418932
0.0246848094510818
0.0233779562757241
0.0480468816944657
0.0520190503063561
0.0235323682297706
0.0215913609710266
0.0495458748925244
0.0445377929737753
0.0202382839583124
0.0197594343721029
0.0499168711648941
0.0448209432125493
0.0180799185666676
0.017601436451111
0.040858218175063
0.0372261098119581
0.017237369058692
0.0170303019122354
0.0347336026505303
0.031725849488155
0.0167992400531062
0.0166296403134689
0.0290546749731075
0.0266097565361421
0.0165284980989971
0.0170828844001407
0.0259857587364031
0.0268289715601199
0.0175980411726598
0.0176878653790912
0.0284763067969142
0.0307524613689927
0.0177848772464283
0.0179660114445578
0.0334202794013524
0.0363915633029192
0.0181457602140031
0.0178526045303032
0.0312350054892999
0.0339009375964201
0.0184602706164413
0.0179153352690322
0.0331110552205641
0.0285328584082186
0.0170649809844757
0.0178770380975805
0.0288579915174288
0.0313461534116639
0.0190647416877901
0.0185580618546941
0.0298910647719829
0.0268486760158711
0.0170038417089373
0.0174131890603363
0.0261308911201247
0.0285867676225524
0.0175210496097879
0.0173410842465781
0.0264780087258541
0.0247275450750076
0.0172424486398924
0.0171678090815311
0.0231079179281604
0.0219104705454481
0.0164742996134537
0.016404229841119
0.0215951329470204
0.0226997785159604
0.0170327194811585
0.0171203423032886
0.0249673515720387
0.0245737475590421
0.0170073361852156
0.0170004599501581
0.0244668529685796
0.0252840050043995
0.0174853807822864
0.0184824163440304
0.0273942828762954
0.027012051758814
0.0185065741578101
0.0184122683692858
0.02762754416693
0.0281518649094433
0.0188875948862558
0.0191575420348041
0.0306948913915115
0.0332284741150216
0.0192725724271565
0.0190908977936384
0.0323743221923715
0.0314812526536586
0.0321662586346104
0.019075051336949
0.0196333456066782
0.0183092775588373
0.0179640006594106
0.0163308737675802
0.0165833279016419
0.016530171559511
0.016290191990045
0.0163323941069981
0.0165379702153115
0.0156877540824679
0.01562003298462
0.0155935970171825
0.0156482181441769
0.0154492823165438
0.0154143462918481
0.0154272081918571
0.0154576216260497
0.0154723766314035
0.0154439381001491
0.0154354605350897
0.0154612240124842
0.0154492352776809
0.0154245219099513
0.0153640445099882
0.015378435672327
0.0153956013594556
0.0153818155696906
0.0153814942227429
0.0153949917704945
0.0153937823853264
0.0153801671816408
0.015379113647315
0.0153925191987589
0.0154094863462836
0.0153957527810632
0.0153839648526738
0.0153966194185799
0.0153953262364112
0.0153827743135019
0.0153812275672232
0.0153936614547427
0.0154098443855254
0.0153967043596331
0.0153966844017188
0.0154099921631939
0.0153937268938672
0.0153800737975704
0.0153784821096018
0.0153922533776334
0.0153905841015774
0.0153772915557367
0.0153770953410093
0.0153903145750935
0.015406451590082
0.0153903762801603
0.0153912231783724
0.0154079303594069
0.0154226293145029
0.0154053690776921
0.0154055132756861
0.0154226187655929
0.0154222349661862
0.0154053419880973
0.0154816398351016
0.0155120040344425
0.0155337931284589
0.0155007979904792
0.0155138355642119
0.0155480005131302
0.0155506931642602
0.0155168692309435
0.0157323551141468
0.0158082565646367
0.0158811524134998
0.0157976918849863
0.0158196153390974
0.0159040633397718
0.0159943742858972
0.0159328800956148
0.0159571417222953
0.0160205089420617
0.0160752471116378
0.0160617671302786
0.0160911765711123
0.0161048240504724
0.016692375914499
0.0167251483859728
0.0167354477658191
0.0166917869447541
0.0170286074791406
0.0169811962522633
0.0170801530868645
0.0171219443085969
0.0172173383329414
0.0171851514993127
0.0178705655786876
0.0179328387282269
0.0191739334004782
0.0189925074272215
0.0211457794338775
0.070283761639851
0.0604188229219687
0.0208304233650927
0.0212184888935444
0.0669376135448914
0.0695212088452996
0.0223668697452749
0.0214902061923788
0.068262206147466
0.0663887000718047
0.0240749631566078
0.0262269187400024
0.0709381076840107
0.0621256451557489
0.0267330223389003
0.0250759988824141
0.0514294376047481
0.0468737083057851
0.0249629912232933
0.0246733404816944
0.0459178916679985
0.0492611441227326
0.0246642185714296
0.0248111462812014
0.0546370652683641
0.0616984743500625
0.0252148387548865
0.0234937883556151
0.0564523465225888
0.0630930306980407
0.02439793548937
0.0228011539646414
0.0608598149774551
0.0499464885949777
0.0209570252848815
0.0209045033226707
0.0554335770388901
0.0492045722295028
0.0187222144650519
0.0181286058059875
0.04658840934188
0.0420824479450817
0.0176816501674164
0.0173200109537676
0.0381705302248743
0.0397706504472699
0.0179374913975742
0.0176389369532685
0.0358981534539814
0.0324636011475596
0.0175104427854864
0.0174481460109743
0.0295937091356978
0.0173864702513787
0.0173273571951582
0.0174196476396771
0.0166936793084045
0.0156562167062455
0.0156111616069479
0.0170083903378074
0.0182643438655875
0.0309166188443882
0.0365682854552042
0.0182125398072138
0.0179619837141918
0.0336973118754977
0.0308687129763439
0.0177312869635534
0.0177698042392631
0.0301722420647511
0.0278778992740691
0.0172917883914609
0.0178485104990235
0.0295023942562052
0.0273623277295134
0.0175205756541593
0.0172701697439617
0.0255865016664159
0.0242197807657438
0.017108053245861
0.0165805682261733
0.0233000030456262
0.0245656012679195
0.0167628211066072
0.0170020606510877
0.0260884989165217
0.0279171531246643
0.0175164042975175
0.0173188037040556
0.026000907264065
0.0244029282728949
0.0171747649770996
0.0171461419357242
0.0162077906679969
0.0170371398148538
0.0245997118539599
0.0234932780830776
0.0171589927844341
0.0170501605643566
0.0172439258912933
0.0165306571031082
0.0174322148863129
0.0272045566713072
0.0288735620020174
0.0180142089291758
0.0173422112990326
0.0175997184019558
0.0180313840739261
0.0327299907701497
0.0298950144946634
0.0175963324058936
0.0182128080399104
0.0320333866411942
0.0340066768830755
0.0191422099521088
0.0197447163735939