/*--------------------------------*- C++ -*----------------------------------*\
| =========                 |                                                 |
| \\      /  F ield         | OpenFOAM: The Open Source CFD Toolbox           |
|  \\    /   O peration     | Version:  2312                                  |
|   \\  /    A nd           | Website:  www.openfoam.com                      |
|    \\/     M anipulation  |                                                 |
\*---------------------------------------------------------------------------*/
FoamFile
{
    version     2.0;
    format      ascii;
    arch        "LSB;label=32;scalar=64";
    class       volScalarField;
    location    "1800";
    object      omega;
}
// * * * * * * * * * * * * * * * * * * * * * * * * * * * * * * * * * * * * * //

dimensions      [0 0 -1 0 0 0 0];

internalField   nonuniform List<scalar> 
209453
(
3.61327774127234
8.63384151917769
29.5167727017109
27.1835518164786
7.67706049572159
7.41569342518656
26.2354235391319
26.5414739276937
28.1536760729868
5.81502277578831
5.56839349361912
2.92996387617596
2.73390935041978
2.89123918099792
3.05258223286128
6.10767071642943
28.1690925314622
29.1579800490138
6.08425768786773
6.23260688949175
31.0736158427178
29.9403059052358
6.45988059729091
3.24898633227043
3.05312732363168
3.30428397288197
3.49664343021445
7.25767074924154
31.9401536347754
33.2851082351458
6.90250586931868
8.88803983897339
38.3306096170158
37.0209983209819
9.45152953754756
10.0953529845795
35.9646776310108
32.1668732620437
9.11723814830168
10.1084082945129
35.9768278749731
34.7378060470335
10.2594836327556
9.78453059626828
31.0072547934357
25.6635740352867
8.13722977052522
5.59079174823001
20.373221594003
16.8696878767828
3.55628411905978
2.38847225078439
14.4795574154138
14.0528734779971
14.3078949853461
1.08329784004125
1.0991216520235
1.02230770213413
1.00389584070365
1.00292321163842
1.00200636883804
1.00596330136056
1.01298755275966
1.02855619316675
1.01318172998519
2.48492830790936
17.5239307127174
15.8854158019573
2.40821851040084
1.15515342985189
1.81382732121127
16.0655071879903
14.4258427155367
13.9025837829097
15.3789557204798
1.15330880756259
1.15752687701152
3.88394916466729
18.7305200138997
20.18158368715
3.92606982452209
1.3346720353506
1.38300206044881
1.39071437592648
1.33773973490767
3.74296372968875
4.0121865969004
4.02969870364264
3.75342451714898
2.63642630379198
2.66391002450713
1.39961607306339
1.34260616575612
1.11178830806709
1.14340917432229
1.41880816618769
1.28934820300783
1.40519510843957
1.5092997169571
1.54059433310151
1.51033209402907
1.65426967220601
1.6902831353703
2.10311940552642
1.89065358275785
3.87739524132858
4.34627648345099
5.64275271501955
5.47343509460178
11.4931208040758
48.331808785846
46.1557515349656
11.5421355605951
11.8628587606521
44.4672345368373
39.9876488296573
10.7014363412838
11.4969192383169
41.0201275812679
45.5613306831539
11.5841347386858
11.9838936465544
47.0163905734173
52.2147473486942
11.7312831071666
13.2980139303461
61.2231974365922
77.049951168792
20.7219524951291
16.2143064494575
58.8093715450591
50.9772380706824
13.4476870524917
13.8774293086302
49.7396874245604
43.6202430348941
11.7513919181302
10.7310474191698
39.6239717897255
37.1717690927415
10.4271050798131
8.22734623492779
31.4281829666719
30.0128847210355
8.00342524203771
7.76078937370159
27.6902355763532
23.8655373373398
6.73860503832494
7.31366888566108
24.5630517193821
20.4120985909556
6.11830999053618
3.83068479788198
16.1769705144485
13.6650925000583
2.4633638890911
1.03664511232985
1.00859946943438
13.8942970745388
13.2922702928718
12.1490820704049
12.0440114994204
1.00303959137361
1.00997194450361
1.00308953716042
1.00125421868285
1.00310084955876
1.00943033348879
1.01168214573474
1.52896862645309
1.47065659987328
2.18604412056405
13.1957290305947
12.7852565172663
1.78348283369935
1.00577316649618
1.00165561332386
11.8553295074079
11.9247129744319
13.2253416827164
13.9077561379934
1.00408840851576
1.00981886080931
1.00101254034439
1.00057746127131
1.0002095658307
1.00039070347648
1.0009058160547
1.00038270996467
1.00067302697586
1.00296503510657
1.00119579959989
1.00040775657774
1.0003414921755
1.00050795772904
1.00009670545449
1.00007028581932
1.00015220903046
1.00027271055877
1.00064762751571
1.00032994905684
1.00065769082262
1.00258498557986
1.07168072168555
1.03809515569131
1.00432261143323
1.00821397548066
1.03104893300804
1.02174306747079
1.03781409823555
1.0498246985941
1.0734795906236
1.06273258074988
1.17280517427844
1.21259204011885
1.25396346317296
1.21501186499733
1.26673640568656
1.30710536793941
1.39512165232437
1.34168728984911
1.44598227599772
1.50883326971385
2.54507511795541
2.30058790224231
2.55634400326495
2.7184335088054
5.7161251961648
5.55457472620062
5.54929133658545
5.70383659347649
11.2152810420589
12.7888344185888
14.4837796633245
11.8658084581408
11.4777454086183
13.7457036828365
20.4639711505464
88.6903708961121
66.3629822490607
16.2639369591061
13.550569307405
56.9366186332758
59.4282977470712
14.0932346338528
18.8853160250128
61.7999430467376
54.0956298330543
16.5227695896818
12.1417594122821
40.7922722932789
35.3110250233201
9.43773056437243
8.54491832320204
32.8569022662405
30.8754626445215
7.96126979029995
7.93529471364441
30.1854129851714
29.6303482036875
7.96704140680964
7.96818117004551
28.1144067214775
32.9197939793331
8.67921878203079
8.16553021778717
28.1826830420437
28.1864199562594
7.37831158903995
5.40126816690037
21.1722870624981
16.2155280921812
3.59866563404667
2.60661873506047
15.1428649079373
15.9003774943868
3.60423222140398
2.20301004299375
13.4830829166122
13.8094208798842
2.07578790595766
1.01102483498786
1.00366801742549
14.9601037042276
13.9559885360646
12.8202303581573
13.6187198251684
1.00310962064179
1.0085708508004
1.00047908150805
1.00020624683242
1.00020695102215
1.00046588273998
1.00049258754695
1.00019389139289
1.00018539153808
1.00056237927046
1.00060803844965
1.00009694870352
1.00002103856683
1.00001797841712
1.00031902827224
1.00038137437089
1.00172207389955
1.00133178808729
1.00693063147191
1.01137426807185
1.03467392774386
1.0245698878179
1.03508478259369
1.04518848683724
1.06207550614671
1.05514627565446
1.05150865339487
1.05814862614105
1.08482328204292
1.07747130949222
1.09253974199385
1.10498869148847
1.14384050205417
1.12919552167102
1.17699220537986
1.19472228577722
1.25934733406931
1.2342965228896
1.26835300083573
1.29874688652936
1.55061968712061
1.48404931992619
1.50752362931889
1.57518953065601
2.59522760178835
2.36114909083466
2.43259144605328
2.65355255953337
2.86049583143289
2.73248342153118
5.65691455463348
5.82144922082789
5.80426380346868
5.62992045650062
6.28546104269076
6.2894306457306
11.7623714207138
14.2095259165747
21.1407507736228
91.962901960186
69.5525092994078
17.133527410762
19.8735403362989
26.6067349606247
104.237598356644
77.2164894119566
66.872768666481
15.6881958999862
17.727568850944
76.8164771926462
88.3986083121639
123.373969848829
29.6950909306219
21.2178296914197
17.0709895230648
17.0967349428499
17.1711057084504
17.1052633354953
21.6339651972832
29.1808652596113
130.148098226713
94.0076218628749
89.0058029643293
21.4531802212863
21.0632896909962
91.2608717863685
90.7943639944822
21.214772627331
21.0870775191727
83.5135323950965
19.9943280613992
10.9759399721167
18.638990921843
69.3365825886325
52.0217505612651
16.2912093043818
14.6971960112736
44.7564870502683
35.4443087579455
10.1441226464223
8.23740628728946
32.0912477452734
34.7862044312822
8.50735475252293
8.42673475839414
33.9531642473294
33.8930674252129
8.48476913844139
8.62080071298489
34.3432194450433
43.7810051216517
9.61522327037547
9.96267992708282
40.1164334197153
34.0044042347417
9.07689667654196
6.66238513378792
29.7448670941651
25.3125611016275
5.90826005534348
5.48446871823489
24.8844618789559
18.531875477949
3.65198388027
4.79459662430596
19.0576342388216
17.7774427942003
3.80031163947822
3.29549634473567
15.7710755205723
13.4752349420588
1.81007758117557
1.45466214362737
12.5243398391125
12.4917364391558
1.42254102820388
1.00767604916132
12.8052005413401
13.601959294539
1.00275039638857
1.00038177277013
1.00084008091932
1.0005917206609
1.00021214564465
1.00018580448759
1.00065676684873
1.00079124667032
1.0001535330678
1.00009386632397
1.00236535958631
1.00066205913532
1.00040339179349
0.999971605086391
0.99995910750752
1.00159648854114
1.00148037643199
1.00645284738106
1.01643899009725
1.0361782084
1.01672408151867
1.002192659053
1.00438316424495
1.09089554522963
1.05114071643296
1.11517756696213
1.16419036437282
1.19407835895158
1.14057306495286
1.17632050825694
1.23064727297556
1.07666861363686
1.06424308114681
1.09445283885387
1.10751360470081
1.09030996899547
1.08191379715233
1.11794120748003
1.12659538743355
1.12024461987451
1.11168561598971
1.15786525552752
1.168161763159
1.23193686642513
1.21407758749512
1.24981491696245
1.27473677805084
1.30296552469749
1.27113583383734
1.31576421907761
1.35594145454163
1.34810035779832
1.30863294070504
1.52770068975969
1.59873982210146
1.62294332279088
1.55557239576403
1.60403924412163
1.68087508422481
2.69899867390363
2.49054539481644
2.99114371850619
3.01984109476285
5.99684866515007
5.82807960167918
6.55889816500762
6.47056707171046
8.59156523612528
8.96911484095925
16.2971616946792
13.563458481974
8.16073319818747
6.72625183983009
4.57842777253594
2.67620604223291
2.30525893625083
2.32099310074023
2.35574158573633
2.33157440220392
2.28516439098693
2.92849935514048
2.89333553334591
4.68831313740639
6.7356808031975
27.2563483099692
23.2922764369367
5.82662420435404
4.52322385412233
20.7467573037635
19.2692862593976
4.16695518259659
2.23716908253343
15.2193721956109
14.393544498326
2.06097471460587
2.00698770490371
14.3146847716922
13.4181615111169
1.77344818663314
3.19506444435595
15.6313168222747
13.7467390656124
2.01508042213535
1.01090007669337
1.00331592783885
14.9114810435169
13.9176116475407
13.1720221862988
1.01404114060409
1.00856922277111
13.8527956756416
11.8119535639247
11.6874945971016
1.01081207092781
1.00693677673854
1.00032373471316
1.00083445231246
1.00080471126749
1.00030192843967
1.00047862674012
1.00135090984964
1.0023421680254
1.29710484653106
1.3458440048743
2.17880546875037
13.4147713144156
12.1989922086301
1.62449421920655
1.93143888839141
12.3458471522121
11.8566928135416
12.0248777832145
1.00250031896097
1.00902355915419
1.00233913539738
1.00054618415234
1.00177066997172
1.00910013503653
1.01911122991008
1.00180666538082
1.09893289987758
14.2885422137632
13.9182943747879
1.10836983588608
2.52323002197851
14.3626936219999
14.3825692096119
16.1561016970587
1.65858856434839
2.34043066076292
1.16160640461742
1.15075679038574
1.18521106891364
1.16842507495175
13.8977378593498
15.3720833135266
15.4957255612699
13.6983140924891
4.46611677676226
3.90304359215307
19.1208677651064
17.7117487416622
16.7645987867962
3.54547979893905
5.48872335254051
19.9950947369912
22.9946781201812
26.1276959591352
6.0455216536541
5.71518805424866
4.21557924347727
3.60822192433392
1.36614888912878
1.47483096759564
1.48609268186634
1.37393489761721
2.49393527879261
2.72824488316262
4.22165981708223
3.6181757111526
5.69173653284351
5.70826429279549
25.5114138229949
29.5614719449769
28.01891780116
5.72404920300466
5.83283439709395
26.4048426033103
26.0433592926142
7.50979835303372
7.73276565339814
26.9076836258228
27.8521887019479
28.7693478898096
5.92997010846331
6.28384080930092
3.05079128661818
2.69599370465635
1.41523991953478
1.53793200874017
1.57042079594568
1.495713055929
1.21708786075191
1.27054530035919
1.31978972375852
1.26762029521449
1.13328751936101
1.14539610486009
1.20097702519754
1.18856148105836
1.16864199764803
1.18152052577466
1.25412308878785
1.23310732225692
1.27794182114314
1.30626271920084
1.27972328830768
1.25379990972076
1.30688288611252
1.3422819543984
1.33096910599542
1.29668148342622
1.34995469618401
1.39900329579586
1.41915786934113
1.36558313162264
1.35642846103837
1.40837004539551
1.65400823292086
1.57488766761557
1.59613128296374
1.6737113831682
1.70834804728192
1.63225723562705
1.66308179641196
1.73166584393176
1.73400750766721
1.66230907087099
2.49249760700768
2.67712754031356
2.75325488198876
2.56747195663808
3.00030626634512
3.05418434018367
3.07516621155926
3.10724800363053
3.45044003259643
3.0817145708209
3.03801337784076
3.00911806816946
2.98532569619741
3.03122278274377
2.71298158310719
2.51625697638967
2.48516912849364
2.68074728465691
1.7007731618257
1.62580537631186
1.62950852148694
1.70189606594951
1.73198541297874
1.78651262783821
1.83511277413905
1.84874185869552
1.85442408787426
1.88535468515602
1.88163853063618
1.88817301622519
1.88944027105026
1.93453425639278
1.92521116387355
2.01213110522111
2.20737257497627
2.21700468933106
2.5168629856282
3.14130678392193
3.38956151115067
1.80619266843143
1.84999605248341
3.86982876365532
19.2770233391413
17.943185017454
3.36005256166291
2.71810172153266
16.3471844047467
16.8166385061711
3.21590665558137
2.28055396663938
15.2089677348087
19.0872615744775
4.18716128456954
3.63574010964653
17.5225412946214
17.8778424829208
3.98680262473635
2.90017021773622
15.8586398514413
16.8110980928718
3.9138940281743
2.81902545994942
14.238709070306
15.3744137122787
3.36642505797932
4.43047696419025
17.8733196025695
23.1679266921187
7.02885797744821
6.12971279233191
23.0535517855481
25.4917032278146
8.16534829563339
8.72397060672505
26.3663793882969
31.9311727817012
9.64199685466527
8.62418538174476
29.2464755495202
29.6528327613788
30.7211227824679
6.02632802345213
6.56699416908371
3.18516737914519
2.83000519657974
3.04419807011474
3.39903048165548
1.66886564544143
1.60605480649669
1.7965651347241
1.87495184349235
1.39694501101009
1.34251003872624
1.44607174713836
1.49860631316521
1.27791182540622
1.26050261523959
1.31275328912178
1.33752416800426
1.30623362170198
1.27796613177647
1.33984766052952
1.37823966062409
1.37331620461184
1.33490392686379
1.39829489368653
1.45387903037492
1.4165834492146
1.36387030321228
1.38840614842939
1.44296124185146
1.48263167426429
1.42737513948979
1.41806129900828
1.4644354026369
1.46860962409666
1.42041924890881
1.43759620324301
1.4854199002793
1.47790633058245
1.42360574265612
1.41680549753587
1.46391067860399
1.46574996659827
1.41547566841045
1.62830079323663
1.69789914423228
1.73261481985092
1.66522887506667
1.67538696241546
1.74621313928739
1.77632432181298
1.70321144830019
1.70342332543626
1.77185898065384
2.69271508308809
2.51199198347734
2.62398092007164
2.8012414250263
3.11051615281988
3.04498421808931
3.34488732064953
3.24072490714221
4.60246423957751
4.95526713006695
5.01178233738202
4.66854083954197
6.55456972899023
6.64713899649831
9.155939936133
8.73068425672294
15.656193201264
15.6345389233501
26.2943367966904
114.904639907935
88.2611233195867
21.0926819931675
21.0694547838135
85.7029629880151
84.7857298642092
20.5341025350339
20.8431439061179
93.7516414152071
94.9412833359446
20.9030027157916
21.0204704439941
98.8375222454039
82.0029337969995
21.5197150146237
23.3329025625887
75.4370006561407
68.3844577913261
20.7647173693156
20.0064473319598
65.6391149212062
60.9871354033423
18.3044348331626
16.8350025228083
55.115896050592
49.3592231575682
14.0770139795891
11.4649573923629
41.39950491764
36.8776040477944
9.46269770740699
9.79407227695813
45.5416086621231
43.7682232855594
9.44724623528526
9.42760776094086
42.6948221200309
42.9409185566094
9.47945756420847
9.62238172677778
42.330465335568
43.7511694010991
9.73766468214848
6.95360715607226
37.8528617558043
33.4002515475392
6.8807627670286
6.72226620837199
33.4566877626132
6.05914640980045
6.74133084805258
6.93165594728455
33.3622480415267
27.4250406345221
6.41191878805461
6.33468778894328
23.4703966837085
2.40413330072617
1.15101459090243
1.12294388323498
1.92925140133666
5.411314135786
20.936921111798
19.6541601297568
4.06049127194931
5.85319899837469
21.502744497673
29.2663303374629
7.77917728711685
9.1156644378196
30.0885043377252
27.796074966172
8.07703623965777
7.87791687792298
29.0672913722166
34.4506014946858
9.92406850437561
10.0232312200472
35.6443304963365
32.1988367011199
9.23805906620531
6.64743846057844
6.06245022839897
31.6710162024489
30.6279064469851
34.2021206041499
35.4267534739649
8.06797556712437
8.93136878320816
4.00975907678408
3.56720197860032
5.15514497565186
5.79252963989427
2.23940265994224
2.13931427113492
2.21884388544122
2.32108892233038
1.56233777865793
1.50467555655986
1.50711236072533
1.56260513298935
1.33591231158622
1.31220850995664
1.3831365206397
1.41907285745763
1.4153275514989
1.3795783963131
1.45847092973227
1.51396878049954
1.46728490456045
1.40994449782165
1.44644659148199
1.50152915796399
1.54947005831566
1.49711323833485
1.48065307096025
1.53179488852647
1.54218969244046
1.49066406444198
1.44538785353859
1.495815630458
1.54721722811706
1.49655390853774
1.47208794425863
1.5274600340744
1.50782001690117
1.46092133832403
1.463490318316
1.51064678062826
1.52804164086483
1.48296950337028
1.46560286239872
1.51859380131317
1.50453231315676
1.45549863628937
1.45537418793058
1.50291514015283
1.53849873550186
1.4906655734512
1.69765838911606
1.76862112473127
1.78418130587051
1.71449183144183
1.74009407516776
1.82039669737003
1.80959820678119
1.74112123415919
2.53184644650554
2.71351481374576
2.85848050474035
2.67938487827729
3.10271916664434
3.17187951220304
3.30215781841439
3.43822021879978
3.54153790458289
3.37262601534107
5.30301489003465
5.61440324355521
5.61222723543088
5.29063447994603
6.68783368782381
6.77115031996718
9.30318801720273
8.84814066320048
14.7908987267816
15.2941210563832
25.1258247699979
105.908646048146
82.625258700152
20.8158380054561
20.8162008301787
83.4442824996112
107.647349374726
24.9076816660739
15.2625931121688
14.649217382527
14.7649804391217
15.3979020667872
25.0480628678561
111.663105247235
86.7318784916302
21.0431372528897
20.8380722439544
92.8344248926787
87.6818425991231
20.4119011896167
21.264066573161
99.248445402708
106.519130327823
22.4283404499509
21.5850441515429
107.002599688353
99.6017944689554
27.9236483865668
31.5497909610611
101.197541042148
88.8007731469873
26.8992059717812
26.2364064454805
86.5175896799377
77.5253217194852
22.6301494781607
17.0611051236379
63.9068113337042
77.3795303534778
19.1311912728824
15.0225505550257
53.5970251610429
55.2499046734908
13.5290914671259
12.3316633247011
51.4947999580921
47.9513291880822
10.637874914234
9.89708405277807
46.1296527473858
43.9821080923163
9.68838775494137
9.62616310707813
42.4254783961253
41.6849580571275
9.5842626325261
6.92776552321477
36.1004603370593
36.5504510508014
6.90346246190165
6.78475282530549
32.6801875950523
33.1560657142858
7.3696031299924
9.26085682717488
31.6600265082646
36.7889262708184
9.90330425667827
8.88361876947915
36.728050046561
37.7346134580699
10.0597884217551
7.9274989757414
28.8094130974541
21.0717094843656
4.92716611471199
5.70971625609421
21.5430885830256
19.3483941704602
3.98984389275709
3.51084891080715
18.4824137653322
25.9555908903617
6.31279343484695
5.73704349568432
21.8901090145707
27.8880158145374
8.48284356897589
5.79247129874551
26.6157193170867
25.7940370187822
6.31553754368222
7.01523310644666
30.0668005014385
34.8950550202243
9.25700364471541
9.27085876293058
34.9073465699973
30.4328700741056
8.29804968948757
8.70153680181172
31.765081262414
37.7302104746215
10.7839130073024
11.7790356961832
39.9674737147197
37.9860910499648
10.9485334007733
12.8383859028585
48.6172764577704
42.8803009439485
44.6054883178442
10.5317913372896
11.6122503881803
14.3907373322724
14.0416029378656
58.5804101064258
53.6983272049618
59.2433529113055
15.0332032175699
16.2757521558806
66.6225290860953
64.4718406390729
77.3593165855712
19.4734599675913
17.7040231238454
14.9838024764775
14.5328507862818
13.2888830115364
14.4005805139921
6.01153814635095
5.42164330762543
5.40262656269989
6.01799917885181
2.36244216561948
2.24104338159563
2.36627152454071
2.49991877421042
2.41774071626511
2.30795528666644
1.58910503658564
1.6606016437057
1.64649910958279
1.5813344693561
1.67463972334739
1.75377213036609
1.52875816338111
1.47365513588109
1.52578595976737
1.57597817613005
1.64832741241584
1.60106675087034
1.57604207284067
1.62888040779012
1.63185731161288
1.57982974888417
1.52362711318465
1.5768655917317
1.6579688492695
1.60143290829029
1.55999864593539
1.61526932877836
1.58688004054902
1.53576660363032
1.54557464068056
1.59843609348833
1.65644729525215
1.59800354062308
1.54330100016506
1.59701234533605
1.57008301558724
1.51208845104915
1.49845308479746
1.54858011008147
1.54987114111239
1.50161790895037
1.524120965661
1.56944244972578
1.55790549142937
1.5037890676782
1.49090071926817
1.54395721303489
1.58109222147894
1.52355660870918
1.52355613082079
1.5732498355429
1.80476484218229
1.72792587819589
1.75160737238942
1.82579269631959
1.86457955768665
1.77719370741968
1.77919115499653
1.85389429583516
2.73890924426723
2.55512806773865
2.73747982309884
2.91944318614071
3.24559600073588
3.16545384225656
3.23160769501321
3.31775106648318
3.43257478073024
3.61959246495578
3.70084792529045
3.50459238130224
5.6474933831718
5.9887721723387
5.95699730153875
5.58992997774979
6.87728717531739
6.93841599393883
9.54679259189012
9.08361549917572
9.43473264475178
9.87132265497404
10.2600304711476
9.86006639365376
14.9904377373936
15.643086273203
25.3556873173925
117.232349755519
91.1912443205747
21.4379955004842
21.4031647490693
98.8629204189705
114.903940829117
23.6053676357502
21.8743299498658
115.579606842927
115.706710438673
28.8751943394869
36.5325038946157
149.059273423504
151.27273275822
38.0618252231902
39.0639366901743
135.703187973974
117.764771394413
32.9741347144039
31.8355977106472
115.957505969256
121.695751994032
31.5715292650544
26.8673886317452
109.629494508023
108.366430140028
27.3523138115398
20.5608947332369
79.2456688230886
56.1058183978196
16.5910577306334
15.144551653902
58.2053398381326
53.6709602573253
12.3351429703112
11.1773959066898
51.0249699465253
48.5037856797426
10.3945720880329
8.80887571918108
42.6691146326949
40.9688071319623
8.19405126810141
7.7816455973028
39.9093708259
37.9284410973082
7.59439427767303
9.1845881668192
38.010172919839
44.3606715331865
10.6525504017223
10.7405346057382
46.8556161466497
46.8323524842312
10.7456817253093
11.1354306151937
48.1459359053916
49.9376524797657
11.4943531774674
9.66241116256447
38.2821676360287
39.8721229879757
11.1675501434957
9.41099320416008
30.6122517588608
23.3433921606233
6.07232873562758
7.4755685861406
25.7979661216861
33.8667543108177
11.0629647671332
10.1264382114085
31.5690426779365
27.4749563620365
7.203010846279
9.34839581145137
35.3430688831189
44.8073768888281
10.3978752231325
10.0180090645405
44.2317632766397
44.3873575966733
10.1002706316781
10.11418939287
40.1737022254138
35.5523658697868
7.37340814644575
7.11860705149327
33.4615027438823
40.4751358696923
10.3346270387503
10.1862125701786
44.6233701654521
35.7154691330621
9.30484915183087
8.85662771565711
32.3131665901434
35.7549895000851
10.3507725023521
14.8256829238462
46.5975068383419
51.2039485100038
15.3867184653309
14.8735059720916
60.1844593845882
67.9612030102912
17.3409497396871
18.3544648940095
75.3108862711495
79.0971652964097
18.5812194641784
17.3202241881963
71.7592574043568
74.7352569466048
91.0978264296121
19.7631380005351
19.9299983792487
14.0222033094643
13.7807779285555
5.71234114499145
6.32367988065906
6.15095193057336
5.5806199352576
5.76825445806755
6.2549508284723
2.66671015473444
2.52067337067876
2.41462470926505
2.52480280051717
1.78732345863624
1.6991831437721
1.76440711190276
1.84469387283988
1.93620840742936
1.86331479721024
1.84343510062697
1.91145709517456
1.87348006459939
1.81527530092182
1.63150074805445
1.67764297690108
1.81273330253806
1.75792073380963
1.71284868716463
1.75916511070523
1.73636150933265
1.67863873151738
1.66739865134503
1.72552356944262
1.85387608427923
1.7866454036621
1.69513672614928
1.7595369578018
1.69687904631665
1.63734347018401
1.5959533847636
1.65057715297301
1.72934854108718
1.67291498680711
1.64932555579628
1.72127239886068
1.64646249822651
1.58759554336481
1.54871826525343
1.61186323593944
1.5853330253202
1.53153598880149
1.5341594522553
1.58565650581013
1.60859922866732
1.56081463157706
1.53868160976656
1.59582298098539
1.63187197809022
1.57231336752449
1.55496635698701
1.61560891965886
1.60701048923966
1.55492020113034
1.75813791778539
1.83953883661706
1.86975534664881
1.78969114692954
1.81557013174468
1.90941379777124
1.90030545255324
1.8192812084198
2.58218679472795
2.76696710142448
2.98236994952689
2.79907951736213
2.86174333414368
3.04634841321914
3.39972486371254
3.30166948395535
3.37394478342895
3.47886588235996
3.57191337314011
3.78331235753844
3.87115108801385
3.64888326945583
5.88116692132242
6.26068336856577
6.22057713147421
5.81411110216444
7.11901560481991
7.13162510524493
7.32178957839582
7.40248725380424
7.70931450689017
7.54103976511762
10.6974025961774
10.3378358673267
15.296579499526
15.9752504660379
25.7997214416654
123.516539640269
96.0664668754501
21.9768335286837
21.8940243634451
105.379683043453
123.781360296372
24.5139275977441
22.2668726640098
122.736636257241
121.825992981749
28.2232460017433
35.2505213059
154.059344423427
147.746052360656
37.2700237397383
32.6640517203678
118.998576285337
126.557248038946
32.515804103219
31.502380797317
126.709845819002
118.3345079135
31.321932160334
31.656566021082
119.697992646043
126.777779112469
32.7165699548879
27.0826207640758
112.599954947425
124.722183478132
29.7041220461211
24.5009352016204
91.4557180161812
59.3576167183325
18.9638301548746
17.5292483346507
61.4721016719711
56.4793265020345
14.0192990861753
12.2356318156227
49.6545650161689
47.0463574994129
10.777686360565
9.64698389630906
44.7193145850848
52.5067152530989
10.9562363530813
10.3242396014577
50.160066515275
48.3181346686234
10.1009078161019
10.0777449436828
47.4448174514917
9.66021266921542
9.01989540497016
9.10069186948921
5.85035505188786
2.51349144834965
2.38559413890279
6.84252938398022
10.8970308873467
41.3618981595864
50.8144970311825
11.8750489543183
11.3816454657107
48.5637315750958
46.2315680194189
10.7831581323408
11.1645055156217
46.0213739074187
38.758951287268
9.33424609945782
12.183601058933
44.3198314942813
42.7763420139177
11.1156214265818
10.4772166975528
43.0398191067274
44.1914583028868
10.2554363587988
7.49866674919464
39.0506161764441
37.8060718071829
7.85105102017167
8.45845417982137
37.6614363385786
44.5996275889305
10.4995495227922
10.0817271799214
44.259797713514
44.7381916161959
9.87805290097194
9.74577649713937
4.6314390780515
8.36567757641934
34.8435755874938
34.3529446857146
9.4441116941825
8.72353751234153
9.1523276983253
5.526493371608
9.0106160815363
36.0198517625486
37.5803355539258
10.5346677059777
9.13187826239598
9.90598971081154
11.8780301205458
48.14814802126
40.5242900188845
10.3117960610722
13.4689424614957
46.9209108017461
51.9930348836637
16.262559535236
17.2965630922226
46.7459801370899
47.1007839064142
18.5216217191165
19.1760727133436
46.7195144009799
46.7824058275407
19.8039317103639
21.9275520117572
49.1001418813656
53.1101239756623
21.9112829770176
23.6856688252919
61.9191883651041
76.4995078117202
25.72455299052
28.9988141582033
97.1120512658305
102.123880859011
29.9493078876176
28.9315478547621
93.3353510078164
104.487909460575
121.794253147774
37.5982194697045
34.0980964537549
21.3490618248563
21.4016472988548
15.8775606416516
14.7372717804364
10.0193142054794
9.65879403608512
8.80227192573456
9.434509315715
7.92732319881243
7.36279723366584
5.62672240424877
6.01444680483347
4.41940529354101
4.23651892187484
4.22724400094136
4.3964883700535
4.32728893400176
4.15147807159964
3.99960917957753
4.18321043857761
4.12062987268429
3.90676435754251
4.0968275149056
4.31932806334586
4.50552228997577
4.25145518290355
4.20343599243739
4.44938395247124
4.38603767561027
4.12349964270664
3.95197932064551
4.18467141466861
3.83445602722135
3.62999625915849
3.24129195855712
3.4150329980749
2.90108439363906
2.75995513550618
2.4397445316572
2.55212627892081
2.25469470003512
2.16942774788654
2.01614964689177
2.12006172696646
1.91880059473566
1.83616414229168
1.72979198282944
1.81648368492363
1.73147312301123
1.66735755116759
1.63174896977084
1.69960705860971
1.70636975208254
1.64676158839598
1.62668763261529
1.69414101320166
1.67586191170477
1.6066160753814
1.61112901605129
1.66976157392374
1.89915974549048
1.81301578235489
1.86317488567049
1.95628535235606
1.99904084492461
1.8937415162046
1.90376560766116
1.9965411570619
2.8214733367714
2.63685277600081
2.92490489095995
3.10982709446496
3.17234709636238
2.98682409218823
3.44963174555788
3.56719447345298
3.65134512909043
3.52595466697043
3.96132737003981
3.72447282828737
3.8048695140226
4.0565763397397
6.49655323736311
6.09682414252072
6.02334826332597
6.44978866365278
6.70275261175085
6.30176660575918
6.21377949428507
6.65029290753302
6.88982169272078
6.48118919396166
6.37123436478024
6.83210225567916
7.77802425921968
8.01280816668714
10.8485007314567
11.1419410872597
16.3992747653265
15.6953194415137
26.0956701545527
28.8985242854569
136.422883822718
108.00057227257
114.312853910141
23.4488758316542
25.0636619606796
133.320213833133
130.519103789505
22.7433578325539
27.9272982316137
129.281726240999
162.691752666222
34.9437996861831
36.9331360642176
153.009371476475
121.515277575261
33.1445587793666
33.9005048115432
129.284603337302
142.911276153826
36.7845782266861
37.2387878964695
139.43008346093
163.312981965576
47.5580027747938
32.6950706986901
147.500466910411
147.136610773627
35.760338611873
36.1902962286901
114.606444801396
97.5888869720736
27.2604992663523
25.9985518132098
82.1289533755752
60.1893449270074
22.5658831509937
20.2382637794472
64.2858274838139
59.4585841177725
16.2498438742295
13.9854646575639
52.6209790856393
61.9234298762849
15.1578312596068
13.3612959458402
58.3557785789123
55.2491861562563
11.9514163647145
12.2051257459224
52.0979248892199
54.6217154737435
12.9340637137544
11.2075000219243
41.1552442155445
43.7588028434877