/*--------------------------------*- C++ -*----------------------------------*\
| =========                 |                                                 |
| \\      /  F ield         | OpenFOAM: The Open Source CFD Toolbox           |
|  \\    /   O peration     | Version:  2312                                  |
|   \\  /    A nd           | Website:  www.openfoam.com                      |
|    \\/     M anipulation  |                                                 |
\*---------------------------------------------------------------------------*/
FoamFile
{
    version     2.0;
    format      ascii;
    arch        "LSB;label=32;scalar=64";
    class       volScalarField;
    location    "1800";
    object      p;
}
// * * * * * * * * * * * * * * * * * * * * * * * * * * * * * * * * * * * * * //

dimensions      [0 2 -2 0 0 0 0];

internalField   nonuniform List<scalar> 
209453
(
83647.0142582573
83662.1692855029
83683.8546655693
83660.9971769792
83646.5307526325
83635.0525502851
83625.1142833283
83612.8436464236
83617.6956728011
83625.7615782503
83625.2174928782
83622.5055917999
83622.5100597024
83633.1935544327
83632.7196434964
83641.3717443448
83645.216761264
83643.1354156895
83642.6526396136
83655.4967050869
83663.8692186325
83669.8857692919
83655.4131624549
83645.9291616904
83646.1701101256
83656.1784324714
83655.753111443
83659.1574599923
83665.7587420557
83664.1299532883
83659.3408834399
83662.7408028335
83664.0190056896
83663.0516999007
83661.844126859
83660.2115255687
83665.8725735856
83672.805866819
83660.3531175681
83659.6731252603
83673.3331167237
83660.4656001791
83655.2554250198
83660.5813145959
83679.8735238778
83621.640689135
83629.2613269835
83604.3619225495
83576.4783592981
83583.9660777307
83600.3564427655
83597.1650628496
83572.8508503475
83662.4615756781
83670.8263979744
83630.6175876725
83620.7474743798
83614.7444664641
83614.9798211186
83615.4906886601
83615.1494844368
83614.1431832627
83615.5260135892
83610.1527884149
83610.0669867251
83604.1460495018
83602.5727715506
83584.8562841057
83600.2765202286
83617.6983844162
83613.7114936682
83632.4456981262
83669.3844662023
83663.9865936233
83643.8434913557
83622.9392476756
83626.8034203052
83603.1424280379
83591.8581650574
83599.0512135342
83605.5406260298
83609.9441787689
83608.889900933
83609.6491174251
83611.6558020531
83612.4042632264
83610.9435272762
83613.5004863319
83614.0737073168
83616.4951928951
83616.5669519819
83613.3491351501
83613.8422071727
83616.6775120614
83616.9609899982
83626.2266317093
83625.2012401033
83635.2193797049
83634.7980579942
83645.7631131058
83646.7812333638
83657.5492524002
83656.6595713565
83668.7339148313
83669.0389537659
83665.3742304823
83665.207804384
83677.5526344819
83677.7061632402
83671.6085076097
83670.9559742385
83669.0239159333
83671.4068574313
83671.985556047
83669.5404051176
83658.3316380303
83668.0295980876
83669.2512928324
83673.289443323
83690.8767272636
83676.3576688752
83676.1799087151
83684.9870397061
83683.1808762047
83679.3119897426
83679.562298239
83681.0369592882
83683.5028264699
83683.2518699272
83681.4419330129
83681.262559932
83679.7212458494
83679.7610586498
83677.253544792
83675.4371786376
83673.2313216376
83672.7912585624
83661.3128717344
83661.5864151065
83654.6625823767
83653.5002082687
83648.1901227773
83649.1617008983
83647.4345772591
83646.6198898795
83649.0521013194
83656.4521486572
83658.2744140344
83636.7005819505
83633.1301258874
83643.2008605001
83608.5824844512
83612.5614629004
83605.1917847913
83602.3796652609
83591.2076392106
83600.3383388225
83611.0775334246
83619.6167523386
83639.7394901735
83614.056629812
83606.4867014501
83624.4741707614
83611.3393353207
83607.7175071341
83609.1826107907
83610.3330863185
83613.6541062596
83611.6138607323
83605.5150329353
83603.507942661
83605.7914943808
83605.2541505401
83605.3688879469
83603.7324840159
83604.8674071739
83604.8932549178
83607.3251697265
83616.0486111219
83601.799042547
83600.0086264618
83610.3649696563
83604.5427014991
83602.2079602849
83602.6695171353
83603.3233239988
83605.0564133582
83604.750015895
83607.3675895678
83607.4990069251
83609.7319849127
83609.7852570239
83610.4056380247
83610.3886785374
83610.8476331529
83610.7434477876
83607.7508418494
83607.9644287515
83608.1283375335
83607.923221471
83608.2719943595
83608.4655655807
83609.1881552438
83609.0723483038
83610.1808782608
83610.4724377991
83610.5834132672
83610.3752682734
83616.268902324
83616.1545686883
83625.6247626663
83626.3639385121
83633.4287913229
83633.714821344
83634.5183751394
83634.1537858265
83644.1900987126
83644.7917786012
83656.7829663714
83656.1457838721
83670.7224050312
83670.9707901721
83688.5874559863
83688.2467878898
83682.3965408739
83683.0931748251
83694.3165187668
83692.8713192915
83690.2869855302
83691.4539662381
83685.9754311859
83686.2035759166
83684.6869675354
83683.9759258615
83687.1814958948
83687.0647651698
83694.4175524764
83694.5954255672
83690.1790099183
83689.1951143573
83686.1964451477
83688.8321438435
83686.7703992886
83679.99376929
83691.8929767772
83693.494804546
83691.5627841391
83692.1195702864
83691.4153514375
83686.4386382342
83670.9736321124
83669.9719415033
83663.1159454774
83663.2633197376
83655.0588239197
83655.7276379322
83648.1841909678
83646.8146278518
83642.8525367841
83644.1863863304
83640.2545079993
83639.9872280985
83638.3931251667
83638.8431135284
83637.2507110964
83634.1645575259
83627.6734776172
83629.6189521247
83620.367329855
83620.968767208
83609.0083096473
83599.8812087757
83604.5322535264
83607.0750636959
83605.3943121729
83603.8544770744
83605.2148586536
83604.6158094293
83603.6634836275
83603.4899724623
83602.5175431586
83601.9476516055
83598.7955570427
83600.6238216866
83602.8325108298
83594.7885458158
83594.7214822888
83598.7086144022
83598.060977821
83597.5073815817
83600.0404939526
83600.0103201873
83602.2963112148
83602.2942512602
83604.7093309476
83604.6045908375
83606.6328376001
83606.8812468074
83604.0470870451
83603.8915162443
83605.1283693872
83605.3534494317
83605.533554892
83605.2827594508
83605.5961820067
83605.8726845492
83607.7005001093
83607.414536866
83612.6662590169
83612.5559847375
83622.1123858473
83622.9826754547
83629.6942526604
83629.952778608
83632.4304427484
83632.1684250859
83642.8784350091
83643.4144120931
83644.3884480714
83643.8551687694
83656.9204031584
83657.6115670446
83674.1454460644
83673.9113426241
83695.1369204118
83695.217878727
83713.3513256502
83712.4759770076
83707.8620738397
83708.7920251842
83702.8234789462
83701.99831958
83698.176947051
83699.0537858692
83709.9245145276
83709.809180307
83704.5112645402
83704.625969351
83700.0406346042
83699.4266903633
83695.7805825142
83696.4852425026
83705.3166089651
83704.6999644864
83701.8676333697
83702.4230585639
83698.5979623674
83696.273724511
83693.9607369902
83697.4944809896
83705.4757084164
83705.9470814377
83705.1305288817
83705.3773847615
83695.9835645881
83700.7366341854
83704.6492983318
83705.3743988235
83716.9468433249
83710.860072621
83708.8609058342
83709.4521748997
83712.7045448731
83711.3769533793
83715.5002614456
83715.1150214112
83707.9033247783
83710.9281431972
83708.4687729151
83701.2876520876
83703.6047579877
83708.674259027
83706.5349330979
83704.9052887544
83702.2514955461
83699.2249466955
83702.4400407843
83691.5225980539
83708.1025624928
83701.8260865272
83686.5019009068
83676.4134072244
83669.2158736775
83675.3007443717
83658.1513626876
83655.724567787
83655.8035656504
83655.6508026118
83651.2397233859
83651.7267695064
83639.6452513735
83639.0236048077
83637.7090484337
83639.4363706107
83638.1167241154
83636.3032826686
83634.376726794
83633.5944217044
83637.6166684765
83631.9494115979
83632.1048247791
83636.6342035074
83628.720397364
83627.9399085975
83621.7717898308
83606.0454628513
83612.4885833128
83615.4089830563
83610.9080164049
83600.2869474105
83604.5992205537
83607.0163161662
83604.5965636799
83605.7268473637
83600.8363415624
83600.3977277414
83602.6932520521
83603.6370088612
83599.7473942215
83599.6889088496
83599.5822113156
83599.2700698733
83597.2396058428
83597.44158552
83595.0287715274
83591.3827996274
83594.8163675556
83595.3772119356
83597.4658039345
83597.3849276411
83599.3882968518
83599.4551542783
83601.7403543844
83601.7628254828
83598.5231333858
83598.9521999531
83601.9148929783
83601.6114882095
83602.9357013757
83603.0740640117
83603.3950542019
83603.334537473
83603.9718940217
83603.5095260249
83602.3778918252
83603.5580722335
83598.1045638963
83598.5299027366
83601.8553818753
83601.4303572929
83601.6228576928
83602.2996010311
83606.0114897015
83606.1157476767
83616.3393108656
83615.8538935729
83621.6731229564
83621.2728297332
83626.4613585815
83626.7043808767
83636.7179434481
83636.0125164993
83640.0442549819
83640.6362127104
83654.8263072088
83654.1291334251
83656.7027471557
83657.40464161
83675.574487799
83675.386363652
83699.8471905856
83699.6940553172
83724.0398639107
83723.469364889
83718.9485929366
83719.8315397119
83737.3194561236
83737.3069678096
83729.9794866491
83729.9901420284
83722.6401943747
83722.5509382251
83715.9703737303
83716.0337773077
83729.23921532
83729.6259687335
83721.8808560124
83721.4621890144
83716.1165719091
83716.2893606699
83710.0232676681
83710.1569065818
83720.5838261865
83720.6036857678
83714.4164407692
83714.584734486
83710.2849546419
83710.2941509272
83711.2711994339
83707.5879411202
83698.9755291981
83713.2087632113
83705.457881124
83690.8916721125
83678.5451138319
83662.72811959
83638.2654585578
83608.8965441975
83582.1158106853
83552.7981252888
83535.4829073783
83537.1720373976
83567.6538688423
83568.8135716988
83585.4187959884
83582.6511490228
83594.9990825104
83595.3642234942
83589.6863724257
83587.957230171
83595.3685134963
83596.1622641733
83592.6682490367
83591.8896668593
83597.6900270639
83597.1689562005
83595.3730962395
83596.2376899401
83596.2498376522
83595.8104720368
83591.9484258614
83592.8178454795
83591.8248924445
83586.4524274997
83588.5951563828
83592.2438744589
83593.2622411952
83594.2890988373
83595.9830173544
83586.7700580593
83592.7641120119
83594.042196629
83596.719484697
83596.4999564164
83595.1211817941
83595.3156728513
83595.3741118542
83595.1418889557
83596.0923007584
83595.7543258706
83595.1692440646
83594.3000361741
83593.0362250564
83590.1618769813
83593.4274158147
83592.2189602516
83590.6329343187
83589.1392565771
83601.5880899561
83596.2644591301
83593.6881806783
83597.1064508815
83598.2454850146
83600.3775599771
83598.3169509061
83602.3222276699
83602.9817750314
83613.911262155
83645.5612243615
83642.8579542243
83606.1210824049
83583.2636059465
83557.1415080331
83569.5893429874
83586.9370798623
83590.9544899584
83586.1199728454
83603.4843448074
83599.7162542282
83607.7859170289
83611.5014538079
83641.7409334639
83622.568747508
83613.269998276
83647.3026198024
83590.0077286648
83592.9988373996
83585.3394433984
83579.3056998908
83570.655166529
83586.0252579209
83584.9596607781
83560.4073458154
83573.7518497256
83586.506389557
83594.2415970258
83590.5724851592
83595.4397220903
83597.12911565
83598.3559019973
83595.9616103135
83599.7739104788
83600.7711281805
83600.0531634063
83599.7732589377
83596.525171288
83597.6876188729
83595.8949059109
83595.0284088531
83572.1244705985
83586.5159486128
83594.0135468594
83603.6740031012
83602.6962873912
83588.4696720951
83595.5002185733
83607.4983593133
83615.487052868
83628.1688919622
83615.2176344574
83614.2303861873
83615.1786246038
83613.5274845185
83609.4925952992
83610.4952236355
83617.0054736685
83616.3682411173
83623.8193466576
83625.2154108862
83630.0792709435
83629.0115466337
83639.7531777663
83640.7792911665
83650.0585933441
83649.4376221043
83667.2348753821
83667.5789008309
83673.5165964693
83673.2008835077
83699.3291262242
83699.1937562204
83728.9527461891
83728.6799611281
83726.6301213221
83727.0855838972
83749.655339717
83750.1222263268
83744.8317343971
83744.5665179142
83765.1501996858
83765.9895880074
83756.1911865834
83755.3566905748
83746.5876813923
83747.1901162819
83737.6108073261
83737.0652529856
83745.8351214796
83746.923133213
83752.2718943808
83752.4229918279
83747.2103627845
83747.092804534
83741.8964337015
83742.0710507253
83737.3516702303
83737.1748308831
83733.6971783584
83733.8184727591
83730.5315818059
83730.4320683856
83727.6147416676
83727.7332161999
83723.5015401812
83723.6761663827
83723.5759880731
83722.9860522521
83726.9493075862
83727.6470873714
83729.5620458281
83728.57882134
83732.2624697171
83733.2818660748
83736.7094338346
83735.5936290527
83742.5012307895
83743.3651676499
83747.7759009304
83745.8855901034
83761.3812134651
83761.1603264056
83758.1055519806
83756.5592915952
83755.1450071142
83752.2881470312
83744.8806545978
83740.4511788263
83733.8897880071
83719.1206465326
83697.6826899137
83670.5997917145
83633.5410097725
83591.3170783643
83561.352779943
83544.4618720991
83527.9887165282
83512.5699564546
83509.4096601295
83551.5204941624
83554.7415518375
83577.291257526
83574.6154179206
83567.7338656497
83569.4892267404
83584.4839212741
83582.8329642515
83580.0518736501
83580.740551219
83590.0729472231
83590.1257683338
83588.7012650568
83589.0556595527
83589.3076538241
83587.6169467938
83586.036778733
83589.9145285492
83592.2862836963
83589.779134245
83587.2369914644
83589.6669753689
83591.7797994252
83592.4729946137
83586.0186112791
83593.4529448954
83604.0676047384
83633.4469309752
83584.5840445452
83597.1234920874
83600.3448185596
83575.1365349758
83651.3848614837
83627.7893898197
83626.4564645632
83647.0237747346
83634.4130703887
83629.1979413806
83622.4480311189
83621.9601164464
83617.4635370434
83618.5508354056
83622.762643631
83621.6958395363
83632.2510664379
83633.1878840167
83640.5008540445
83639.7704130614
83653.5170200251
83654.2056098309
83672.4384489459
83672.6041187537
83691.8742976498
83691.6233691697
83725.6470776543
83726.1328836242
83728.2581142365
83728.2093011563
83754.2962474805
83755.4758396734
83754.8000376367
83753.9425807971
83779.0239688136
83780.4187220395
83773.6720825644
83772.5361222641
83788.0019462906
83789.239024542
83797.401595093
83797.6368106402
83791.926020329
83791.7257916068
83785.3479056814
83785.6308279502
83779.2597642533
83778.9468298873
83774.8270414833
83775.0303843092
83768.9204085064
83768.7778159238
83762.4595657599
83762.6884039943
83756.7456650196
83756.542552684
83765.5347646031
83765.7555692397
83760.8618550562
83760.6904057799
83754.5968143059
83754.8087551452
83750.0013850613
83749.7944713786
83744.2818699833
83744.5922125247
83740.5482978998
83740.299702704
83735.7861367938
83736.0840238166
83732.4846381279
83732.3844668204
83729.8187639745
83729.6244410667
83733.1329996768
83733.3168287989
83729.2738926746
83729.1826364256
83722.8585785708
83723.0116747384
83720.1916505563
83720.8739113715
83719.2188524773
83718.21420165
83717.6363652397
83718.0346418401
83716.3686542047
83719.2636863788
83724.8906871937
83722.8389641329
83716.7549119482
83716.6476771328
83699.9893688978
83707.2790104951
83719.6389940429
83720.0794230618
83716.5623373226
83714.8831215382
83703.3058274974
83706.4084705586
83698.3252832184
83694.558452567
83680.9555252219
83686.9738199341
83671.8117889627
83668.8047007299
83652.4958050342
83650.7963218199
83635.3550828557
83634.1622343539
83638.4320732901
83637.1556005858
83639.8339649841
83639.9447279948
83622.4654699721
83622.4371505443
83624.8852945544
83624.9854664049
83625.1973398609
83625.2388057504
83626.8467860797
83626.5300456412
83621.0328048161
83623.3133428799
83635.3001972217
83628.5095897674
83623.1923561206
83633.114974908
83617.4266577131
83614.5411490368
83623.5744212833
83625.0983520336
83620.4574734762
83614.4234046962
83609.9060829366
83621.0405954157
83590.4299275608
83595.500013874
83604.1894737738
83607.4070855316
83601.9000210092
83596.1455156751
83590.271964574
83585.1689563553
83579.6292957327
83580.0246459648
83579.2882875731
83582.9631763015
83585.2144360951
83576.1701765734
83587.8087289679
83585.8551623772
83590.937047516
83596.4364444433
83595.4303254474
83595.6186491733
83600.6036533005
83597.3826629165
83612.9147258453
83610.2525556863
83616.8435262095
83630.6382027642
83632.2167035414
83617.9135558351
83617.9872357333
83619.0212074786
83622.5767211293
83623.8836973933
83612.07436733
83613.1250544043
83612.9988047879
83610.2849332394
83622.4146754694
83623.9929737796
83623.2382595089
83622.0408591959
83649.0057272939
83649.0127836791
83667.4754474679
83667.9834027772
83684.5536437499
83683.6037280103
83703.3547911104
83704.1639873015
83715.8004981808
83715.0083655082
83739.2034673519
83741.1635743214
83751.937732816
83750.4658376758
83776.0106124151
83777.8266623045
83782.1993655322
83780.4808754674
83801.4704777864
83802.9345021033
83811.6861591749
83811.8294862214
83809.6122198729
83809.38180198
83805.01330258
83805.3327524894
83800.5551385326
83800.1694227653
83812.3661467709
83812.3287357173
83808.6628336705
83808.7494812131
83802.1272114205
83802.1036752171
83796.6708365604
83796.61312466
83789.621781514
83789.7830959689
83784.8360119629
83784.7337541034
83777.7613339251
83777.8822509247
83772.3420179413
83772.1500048296
83780.4000942391
83780.5155789523
83773.8300304559
83773.5569511917
83768.2708381378
83768.4670415614
83762.2516834241
83761.9260036357
83756.7130077578
83756.9248574591
83751.2612356782
83750.919512983
83746.2849310153
83746.6045298207
83741.8421348947
83741.4637782391
83737.3274219456
83737.3252771932
83742.2668743786
83742.2259739803
83739.0012457321
83738.8598848094
83742.9203135089
83743.017980847
83739.1920207125
83739.2647275365
83733.4286354487
83732.9250806689
83728.4517776197
83729.7684234224
83728.6924788834
83727.8681089667
83727.7997003378
83727.4066168347
83734.0216922492
83732.8935230449
83734.1396595695
83735.6357866534
83738.1612003882
83737.0243428685
83744.4833913123
83745.4867904499
83741.9303246121
83739.8670680231
83738.3630868722
83740.2957067089
83735.5163155478
83735.1457441677
83729.1669547116
83728.8794793027
83724.1922416027
83724.3832103562
83732.7247620805
83731.2642976172
83728.6239891454
83733.3964964224
83726.6849748984
83722.3938851216
83711.8612552426
83715.2887692066
83702.0691378244
83697.8634358102
83684.5914016334
83691.2054311804
83676.1836146245
83670.0461415047
83657.2471231021
83667.0675755087
83651.5070516565
83652.8505125055
83618.5881037468
83619.3681284773
83588.136689175
83587.0056604037
83606.2544987854
83607.1036430615
83616.6087474131
83616.7497329103
83602.0898636865
83601.8736078169
83607.8958850918
83609.6849929892
83614.5231266251
83614.0174858354
83615.8488260478
83616.4295081522
83605.8987824169
83601.5251366821
83619.0283620967
83615.086859448
83607.6101418338
83617.9951803535
83581.0035270883
83595.2172149044
83580.9007690759
83574.950179631
83561.5766906958
83558.4968996732
83539.2612652633
83545.6451562377
83496.4801053177
83499.7731695565
83465.1716478116
83463.5375180555
83439.0334263636
83438.4795935067
83406.9347373733
83413.0980174945
83488.3801842793
83489.2027243209
83541.5671056197
83538.8724888192
83535.381389881
83533.9458702714
83563.9704229318
83563.5254981062
83554.9310337215
83560.2636738434
83571.5705653181
83559.6081562896
83580.1727998419
83580.9165524381
83572.4663099574
83553.8486150699
83571.7281712524
83571.9674036019
83575.0977563128
83579.0678099182
83589.5151677097
83584.2757105158
83591.2562156242
83596.5565912708
83598.8556351917
83596.1995663931
83602.1000029022
83610.0547372194
83614.1403139819
83605.4743369639
83596.3363244672
83593.7302534292
83600.8880961597
83604.233986093
83607.4026807204
83604.5774954922
83595.7373256926
83598.1922403686
83593.6285064796
83589.2388571019
83582.8963975522
83588.0928590804
83579.9618244017
83577.7129237313
83584.070940684
83585.6902665115
83587.6718147511
83586.2373147231
83590.5553394653
83591.3434857557
83601.3688174133
83599.9703536524
83605.9010333461
83606.9250044288
83628.289937909
83628.1530119069
83645.8532593492
83645.709806639
83647.032423604
83647.7140247108
83673.8828666162
83673.0234474142
83699.0894707092
83701.1101558175
83723.4161555099
83721.3784064389
83740.4054412425
83742.3543024604
83765.5635287241
83763.7418662575
83785.5134559679
83786.6999953492
83791.826214925
83791.7481146949
83801.6747979709
83801.6372351525
83806.3883723135
83806.6167005329
83809.2277172763
83808.967492764
83821.0485251424
83820.5471014543
83822.6502418292
83823.0838262249
83820.5881891168
83820.3429145755
83817.5414429623
83817.7578132291
83827.1829675194
83826.5871230737
83821.446183231
83821.7926025895
83817.844726922
83817.5651318904
83811.1908441094
83811.3441509612
83805.6388901935
83805.5824774089
83798.6304682918
83798.5744354786
83793.2686878994
83793.3461807854
83786.4701924635
83786.2910814804
83793.9013666232
83793.8919169432
83787.7539040297
83787.765411628
83781.0877027325
83781.1431693068
83775.4086237971
83775.39624865
83769.0624192327
83769.1900907964
83763.3504909892
83763.2981575388
83757.3641100211
83757.5138718759
83752.2057707962
83752.0259275121
83746.6986908202
83747.0827640302
83752.5766099473
83752.299463154
83747.4642749978
83747.4059276786
83752.761430287
83752.7389946554
83749.2466104168
83749.0706374917
83753.2701432051
83753.369467882
83749.4441706267
83749.4944373592
83743.3644962159
83742.8419059867
83751.0851709128
83751.6388823616
83758.6330980196
83758.1641179502
83750.9385041655
83751.8915981067
83747.6846497845
83745.3803991419
83743.7912000028
83746.0540103328
83741.0524958197
83740.0645523267
83735.5150144512
83735.3246751229
83729.8163780681
83730.5018310577
83719.8170429793
83720.0240994544
83714.2416253737
83718.7738771025
83714.2505710034
83707.2489232332
83709.0669695433
83708.2095832227
83696.9690162394
83695.9761035272
83681.7971070465
83690.8922943808
83668.9140358578
83669.8209624134
83670.5372270872
83669.4677590682
83652.4242607876
83662.4980322029
83638.2021878195
83635.0637276617
83596.0078675648
83596.9318197981
83558.149198127
83559.9080738967
83534.3803846134
83531.721756477
83563.4844853451
83564.6458291419
83587.1424436735
83586.8048235259
83562.8958385395
83563.6776862557
83585.1387572478
83583.5427028577
83593.6143570743
83588.2531132795
83603.8148372103
83602.73502856
83593.3323114983
83595.7828294259
83577.4500622404
83582.1864886619
83572.6059497444
83580.7589126381
83557.6815328991
83553.6312227905
83521.3747149829
83518.4579956004
83495.900507058
83493.4272651336
83472.2592719081
83476.556233449
83421.4200433714
83423.5502754621
83379.8770431985
83381.0155726894
83355.3918136591
83346.1363449049
83314.1438821119
83331.2524511866
83324.2358714581
83305.2849065595
83366.3992671293
83363.2086453663
83465.2520028802
83466.6703607131
83470.603494394
83464.9229126548
83456.7482403699
83461.1478876495
83503.9943650464
83506.1392902205
83547.2524818244
83536.7739049393
83544.6422838708
83542.7378387934
83559.5122916996
83551.1342128544
83559.5714574398
83559.2489659733
83557.8834231164
83553.1444748904
83542.2738474671
83548.8077406689
83546.5063760884
83548.3322846743
83560.046667456
83559.628316337
83574.6117706697
83571.8117299792
83578.5027225968
83579.9108329758
83591.8689244465
83588.2411933419
83584.5988057881
83570.8415187295
83558.5352194493
83572.4204284258
83573.8381714871
83573.9949633541
83563.6171598711
83562.4855387123
83565.6159938938
83565.5999223374
83568.4029882191
83568.8535417461
83571.6679416447
83570.6210318866
83581.9945059525
83582.7143899147
83598.1158833265
83597.8525725986
83621.5408665712
83621.4718904179
83613.2469953277
83613.3676352102
83645.4215736679
83645.0129306017
83677.1043983507
83678.1277789764
83713.881247212
83712.3378149362
83726.9922144473
83726.8145769781
83723.0881784654
83722.9077178152
83744.5802264114
83745.0690373983
83761.3597342946
83761.1542486814
83778.1495769738
83778.3849842919
83783.6545086052
83782.0605608866
83796.6109399326
83797.7857958367
83810.6111652335
83809.5025219783
83816.5567393251
83817.1960606069
83823.406272892
83821.5511184849
83827.5740370896
83829.0065713932
83831.912859807
83830.846743175
83829.2275265154
83829.9994622578
83834.501542275
83833.3988963097
83831.4559976115
83832.3222205751
83827.7361382691
83827.1488693636
83823.5551917528
83824.0364455155
83818.0258562053
83817.7296253325
83812.3686914047
83812.6168476539
83806.0528706992
83805.9292065373
83800.5136949441
83800.6083374227
83806.675030932
83806.5052870366
83800.316332492
83800.395611024
83794.4757899166
83794.4059831102
83788.0594347088
83788.0661649993
83782.090301787
83782.1042378352
83775.8112228017
83775.7548916395
83769.7173342128
83769.7825832204
83763.7959534437
83763.6648278646
83757.976472902
83758.0956270701
83763.8479976264
83763.7046313321
83757.7167822084
83758.0474114743
83763.4825344083
83763.2424723832
83758.1030579232
83758.0141483582
83763.2073716236
83763.202229691
83759.4585256728
83759.2011765854
83763.0067847634
83763.166012041
83758.7257488499
83758.564668127
83766.4061861827
83766.7937062664
83773.2021091168
83772.5961305534
83764.1419626512
83763.7622108596
83755.8289477807
83756.7913836876
83752.0763503454
83749.7203086021
83747.9160847012
83750.2839219955
83745.0347287977
83743.5621004719
83738.0425190482
83738.5833142026
83732.8342935895
83732.8523544584
83725.3525196652
83724.1453846902
83715.514610134
83717.2776423386
83705.3006727929
83705.8529799307
83693.7995786145
83691.556340075
83696.183300477
83694.4663679526
83682.7889358994
83683.2393468634
83681.320090559
83682.2446785498
83679.3116072851
83678.4364532373
83680.2953056829
83677.7484074283
83662.3358309593
83667.9927381143
83644.9298048839
83649.8958298396
83613.7980585868
83611.3033159431
83564.9258869772
83563.5905297342
83518.059319158
83521.6847691887
83494.7317650193
83489.9848338216
83454.6727809593
83459.0197252732
83501.5739802224
83499.5986399447
83534.9327302536
83535.8817297787
83509.0905727272
83507.9864185707
83537.1910641737
83537.8026609714
83567.8430857003
83564.6684626161
83581.7818692957
83587.0870014937
83575.5161796155
83561.6873506593
83532.8476594472
83488.9847199676
83443.6184675963
83391.5428313216
83347.6405881501
83324.3043323856
83322.3537327888
83305.9463366149
83303.6898061717
83360.3051481822
83358.1484130868
83420.2269130217
83417.8896831859
83407.8062844008
83406.7164080726
83399.8437100628
83400.8009088561
83393.6337593475
83392.56422605
83453.261067822
83455.1543477434
83503.5747800693
83504.0470000758
83543.0724493874
83537.6644517279
83537.1061188844
83538.081276317
83507.0306770517
83504.4620736357
83457.8202198977
83456.8635672793
83454.3890217896
83456.1623105496
83501.0371594162
83502.2416685152
83541.342888073
83534.1096066466
83534.4008868535
83535.9533155984
83510.9152713856
83517.0834065469
83537.2134148764
83538.0694973287
83506.2043819152
83466.9303094032
83468.6290744324
83430.0346534936
83436.3783404629
83370.8418643155
83373.6565822853
83416.492588947
83353.8198360063
83347.7054748726
83348.1582824907
83333.4127412808
83331.7069593787
83315.6883773883
83318.0895662028
83308.1140120438
83307.0369068083
83316.1846459553
83316.5822893071
83314.1293164221
83311.1658029173
83310.1634961207
83315.9757387604
83311.1758718201
83308.0770611709
83307.4687112096
83313.2852701223
83287.7960205467
83296.6435768808
83297.0195518047
83284.5863118579
83294.7004703633
83299.4070446803
83305.1991283874
83304.2575784306
83312.5364862541
83312.6588378359
83325.1435921835
83325.2500632247
83329.2163240185
83333.4371385357
83334.7670989357
83330.8865233626
83333.5769194071
83335.4577239876
83365.5014865112
83366.2078054298
83375.1060180932
83374.6948422886
83386.0686787465
83386.2517390187
83401.1416192443
83400.6029082413
83416.5980999571
83417.3670644084
83434.1022500117
83433.0725667669
83448.5744218216
83449.7920448614
83463.8214966752
83462.5203049785
83473.7084173054
83474.8789476508
83484.4189712106
83483.7263801924
83492.6672286568
83492.462412571
83505.6343077772
83506.6485432231
83528.003182971
83526.0153198075
83565.5279612545
83567.7063539887
83627.0791812155
83626.2286997704
83696.3035900092
83695.6769351166
83753.9896047864
83755.6583833443
83788.5768247462
83786.7675820818
83802.6836123021
83804.2242786395
83811.5723555177
83810.0872752949
83815.1867820349
83816.7115659286
83819.2569544875
83817.8918493278
83820.2263559397
83821.4036052632
83821.1815325616
83820.2287185624
83819.4273657721
83820.2362561826
83817.4080765889
83816.8840147758
83814.0006742735
83814.3685160747
83809.9091158458
83809.6070034947
83804.8979144432
83805.1135553841
83799.5685973503
83799.4805724557
83793.8379488069
83793.8862345138
83787.7817138884
83787.7590881111
83781.6425666727
83781.6042129908
83775.3880908674
83775.4723329192
83769.4286858356
83769.3496872524
83774.7190682232
83774.7848710807
83768.7160942847
83768.4399262158
83773.6213603975
83773.8055115022
83768.1274973666
83768.2561891073
83772.9497615872
83772.9002073107
83768.5222556884
83768.8417420315
83771.9519606392
83771.7358785751
83776.5745507062
83776.9181544542
83779.1463279555
83778.8876854844
83782.6656127686
83783.0169437353
83783.9747168405
83783.6582205697
83776.4340612003
83777.3206433033
83767.3517936296
83767.5629475773
83759.8504869357
83759.0328661608
83752.5241577473
83754.3320113527
83751.9084817184
83750.4548901665
83746.4250045168
83747.566337282
83740.7971343171
83740.4029597475
83734.4913788213
83734.8722985011
83725.8927855996
83726.2123320091
83715.3681766811
83715.2294536031
83705.5670948751
83704.473663054
83691.8841064413
83693.0104236003
83691.3547610851
83691.3185533062
83687.3060396271
83686.3466937945
83669.8784113605
83671.805279077
83664.9343349095
83661.2400147705
83646.1457944303
83649.7130905614
83646.6061838663
83647.4028995999
83626.2564705462
83623.0667785492
83594.9989594645
83601.446922548
83561.3154450817
83555.3234572822
83518.6183912673
83511.5880614822
83461.2153701761
83467.6634317626
83444.0473090194
83436.3851239084
83400.487116647
83408.0574341917
83382.2565600412
83376.6851442397
83427.1870743061
83430.8140952707
83472.3150112531
83470.3333747568
83453.0352562127
83451.7105101087
83418.190333984
83412.866945492
83387.7943591373
83394.0736009865
83330.5151527362