/*--------------------------------*- C++ -*----------------------------------*\
| =========                 |                                                 |
| \\      /  F ield         | OpenFOAM: The Open Source CFD Toolbox           |
|  \\    /   O peration     | Version:  2312                                  |
|   \\  /    A nd           | Website:  www.openfoam.com                      |
|    \\/     M anipulation  |                                                 |
\*---------------------------------------------------------------------------*/
FoamFile
{
    version     2.0;
    format      ascii;
    arch        "LSB;label=32;scalar=64";
    class       volScalarField;
    location    "2000";
    object      nut;
}
// * * * * * * * * * * * * * * * * * * * * * * * * * * * * * * * * * * * * * //

dimensions      [0 2 -1 0 0 0 0];

internalField   nonuniform List<scalar> 
162506
(
0.00149788727318315
0.00155230932149872
0.000102987106194371
7.88007047960867e-05
3.92611408014114e-05
9.52642851957494e-05
0.000460216287214068
0.000530889892105218
9.31985033020269e-05
6.34526361049764e-05
6.95895632612278e-05
0.000885917233051732
0.000936983676564775
0.00130187051264293
0.00293179343810324
0.00332133365307324
8.95290552946536e-05
9.28912557971731e-05
0.00132946483871597
0.000677633962587869
0.000910840380027615
7.98736613299996e-05
8.51392163508275e-05
3.87256927949478e-05
4.36014814034029e-05
6.125910469385e-05
5.67985050407168e-05
0.00570443402383761
0.000106155155218987
9.82012812212367e-05
0.00813481587162626
0.00772356622383836
0.00496175697211153
0.0104495934535681
0.0150001158801732
0.0149413118547546
0.000100603929506631
0.00010981312621117
0.0106573176441555
0.00846618739910649
0.000113129909214027
0.00011071325019111
0.00510568040380834
0.00458240899437246
0.000110748025129871
0.000110629989411548
0.00324928956361237
0.000815380515403784
8.70920461243178e-05
4.53257433055342e-05
8.51772849300599e-05
9.13395381729693e-05
5.00794285562714e-05
9.64912676975569e-05
0.0011611531389327
0.00128200985444443
0.000101217769878627
9.79040900866768e-05
0.000863653148448815
0.00214224459596766
8.25014249423993e-05
8.17068507861351e-05
0.00095505326798454
0.000819810284426856
0.00228430267651395
8.06790296424926e-05
9.25367567969599e-05
0.000109623422949218
9.78211956857217e-05
0.00434977932536707
0.0028350236474445
0.00418231270334951
0.00593899344307281
0.00352947247986448
0.00247419648699189
0.00192512183237424
0.00167940714623709
0.00334009947801791
0.00298439091615972
0.00010268336478277
0.000113684883802036
0.005303672195852
0.00507046369127497
0.00827140309455304
0.000102931434247392
0.000112842905262682
9.99222204585973e-05
9.0220753242741e-05
0.01010502514313
0.00566210865020811
0.013107863073973
0.00962116747975228
0.0145309903430238
0.0125337559994113
0.00871224026776656
0.0116654651664199
0.0150003105605883
0.0150014781977926
0.0150016938800988
0.0150004404838733
0.0150003378151916
0.0103861746272889
0.0109437920643812
0.000109774266010985
0.000100687836177597
0.014943059280868
0.00731890481655938
9.82866092720639e-05
0.000107008900921988
0.00569928842656359
0.00570657189795032
0.000110705263088871
0.000113663892333609
0.00931352356219457
0.00803723596257548
0.000111182848478507
0.000110077114368928
0.00788142677318417
0.00485604915896378
0.000110956663778629
0.000110719730651638
0.00380573271001637
0.00334333213698845
0.000115616179235395
0.000112465117546066
0.00230387326294427
0.00112580183632022
9.70016647773306e-05
5.41728359848234e-05
9.4275537919138e-05
8.76790894012022e-05
4.83551246128152e-05
7.64239907532891e-05
0.000744233278872007
0.000702749368714989
0.000112256712148223
9.67078879903129e-05
0.00131411847967067
0.00219513483235435
9.34318239693851e-05
8.75987892247825e-05
0.00271978150239371
0.00373690594857183
0.000107806397429922
0.000106071926582758
0.00351646631503243
0.00824549401210133
0.000106406258415167
9.8111853139811e-05
0.00480105597135541
0.00691978229287171
0.000104860697988775
0.000102389048252308
0.00802706307706008
0.00709598962651001
0.0110142318793229
8.65933301621702e-05
9.60092916840017e-05
0.000105912760378748
9.427109701778e-05
0.0149278964531446
0.00818230644176066
0.0150011150022964
0.0150007004565143
0.0150003449699106
0.0150008109263117
0.0150010929203525
0.0150004690848853
0.0134250100292804
0.014200336939343
0.00869091358937774
0.0104554048281681
0.00703827859956592
0.00489634849485663
0.00126317988919438
0.00278937499094252
0.00312920548669628
9.01386030728552e-05
9.6296383849065e-05
0.00143545138553871
0.0016886956952494
0.000103017925581902
0.000110804906253719
0.00318629129574818
0.00532056495656725
0.000110969434451161
0.000111896839229332
0.00415761021532582
0.0051559815265907
0.000110579931405611
0.000108170178853824
0.00276201320158606
0.00275037176660656
0.000105269929320056
0.000108594986905125
0.00251874134422763
0.00135797557851828
8.98295818942521e-05
9.46413774324044e-05
0.00138318650050383
0.000725925239959546
8.71418121820738e-05
8.64057327415708e-05
0.000720445615764021
0.000611160789406545
8.03586200886341e-05
7.61474927482706e-05
0.000697543205655459
0.000640508743519608
7.77313725949098e-05
7.31208384102475e-05
0.000815295365510839
0.000588046146276925
5.39901994847737e-05
5.21248939342091e-05
0.000510028946174703
0.000618211585434781
6.46511890852128e-05
5.75195573509004e-05
3.32084406141732e-05
6.77580578313786e-05
0.000603986791364279
0.000540494495785462
7.23252343226402e-05
7.24059523656088e-05
0.000492114095137475
0.000480890425320966
6.02981472208495e-05
3.58928573770408e-05
6.8212924980759e-05
7.44023264124557e-05
0.000384087167171824
7.05433299608761e-05
3.37064153828674e-05
3.50667055708677e-05
7.43887050644207e-05
0.000503958590747308
8.75692129844773e-05
8.46234654984585e-05
0.000561164722027405
0.000968832643624603
8.65197292096373e-05
8.63009903985213e-05
0.0015306146434098
0.0020807892393885
0.000110612182994016
0.000109305222243805
0.00293869026375295
0.0043254970864902
0.000111645318654535
0.000107226828068666
0.00702785176384186
0.00436781446705405
9.51570280794944e-05
9.55663852820602e-05
0.0044221749431456
0.00496043519358805
9.77714541495633e-05
0.00011548216686714
0.0089425234078452
0.0113981362678342
0.000114555206278436
0.000113471183808232
0.0112424264663575
0.00701950036366644
0.000106435115246908
9.44094213027868e-05
0.0149281213707061
0.0147855351450283
0.013276751735624
0.00587766729299565
0.0116684162722545
0.00941407733815852
0.0122219695386048
9.55658161546088e-05
8.70039307810106e-05
9.0143681490103e-05
0.0146880050876022
0.00536393215492368
9.95847937306602e-05
0.000103669471192379
0.00671313734834514
0.00564429746029031
0.000113321378695823
0.0001027986245375
0.00279458423263496
0.00295215582518213
0.00412961829288025
9.71565971147034e-05
0.000110734809374578
0.000113005408688164
0.00010284407647088
0.00765997696776821
0.00509354783054005
9.10189004630888e-05
0.000831319722424296
0.00235088934389248
8.14043047831126e-05
7.01138359487972e-05
0.000880444972838853
0.00101906724210718
6.37793517190651e-05
9.47446771389792e-05
0.000531940781302049
0.00045504860406474
7.79973194872433e-05
4.00560533132706e-05
9.87572622206852e-05
5.99528332324702e-05
6.40393882725585e-05
0.000927469579064737
0.000680680075970432
8.46162477997681e-05
8.28996006515815e-05
4.37521382328361e-05
3.95215526561558e-05
8.37548478778447e-05
4.57509481587584e-05
8.63678403900334e-05
0.000777673048798154
0.000875626899729003
9.75009740213401e-05
0.000103776626750746
0.00128198881870087
0.00117336767397761
9.25375909740937e-05
5.03680872306305e-05
9.53902359375813e-05
9.68419020188355e-05
5.38071930704249e-05
9.3302031798182e-05
0.00115146668564998
0.00236246006255424
0.000113800522769811
0.000106889679937533
0.00267039550530827
0.00135401669984749
9.44133734242651e-05
9.52186288201733e-05
0.00128788825122533
0.00135019386086436
9.68196237194794e-05
6.475623811426e-05
0.000713012810535375
0.000422621885795532
5.19373419524134e-05
4.29891985842875e-05
0.000288916851834372
0.000373838701375018
4.75787557699361e-05
4.21624972675517e-05
0.000287863599347697
0.000385538761904713
4.75384472214514e-05
5.37055992928223e-05
0.000513766296008504
0.000622804325681082
6.21338411768395e-05
3.35192535703575e-05
5.22886232026377e-05
5.30103878399337e-05
3.82974743917481e-05
6.54416788617112e-05
0.000391815142833628
0.000488349936136086
6.65965444149983e-05
6.29070357406646e-05
0.000864254663699209
0.000419066547167545
5.64695565869447e-05
5.08502233323618e-05
0.000383950077953552
0.000313617746208554
5.87213560131308e-05
7.29433475355224e-05
0.000428192153482751
0.000826338817428728
8.04432654970815e-05
0.000110107904283053
0.000836635267801759
0.00131626550277945
8.9353940543993e-05
9.55020744157624e-05
0.00156147153906531
0.00262296680175444
0.000113733623124799
9.82805493343486e-05
0.00289781121177683
0.00413466672877311
9.60089076565937e-05
9.65815331230282e-05
0.00413527098870515
0.00489774193820887
0.000115131251629358
0.000114694573347911
0.00793504976761411
0.0079205713102517
0.000115011107937321
0.000114997700192245
0.00894415801386375
0.0049398129676235
9.64756058208624e-05
0.000100261182377771
0.00754404643696593
0.00319934223806148
0.00774608962488004
0.00777328008641732
0.0147374025695567
0.0119571638953871
0.0105066646320593
0.00879913398873202
0.0115706131521595
0.0134231124308104
0.0110915510061766
0.00476621677891629
9.85267023040973e-05
0.000105250847648307
0.00819973277110173
0.00341709517162048
0.000105877281074546
8.3065733570789e-05
0.00205767442376203
0.00290551509533694
8.69784927595e-05
9.2776767307417e-05
0.00256147494368643
0.00136866720619876
9.76284565702834e-05
0.000109871474520802
0.00072998176165563
0.000824670447830492
8.52827046211368e-05
4.67742610754138e-05
7.7142165100588e-05
8.44133316947352e-05
3.39678953912474e-05
7.08177384290087e-05
0.000540659722380353
0.000635712642241495
8.54456955746203e-05
8.61101512219041e-05
0.000724663019687676
0.000668444345217352
7.98679327895166e-05
7.57758695196857e-05
0.000586083174123409
0.000545917193061078
7.63892855124441e-05
6.32718954329505e-05
0.000374528005965452
6.72106959518683e-05
3.27124614833439e-05
3.26994106327245e-05
5.57576848622638e-05
0.00038913007951611
6.15316825710179e-05
6.38171698896244e-05
0.000322655439377641
0.000411114698833697
5.45950048121657e-05
5.25709990336026e-05
2.81039357811465e-05
5.04975242895075e-05
0.000424432922862021
0.000488688268647334
5.72574669268007e-05
5.31300926381966e-05
0.000409009044191896
0.000283315315124738
4.34183422531825e-05
4.00506588543614e-05
0.000259869266928407
0.000245905801652711
3.8140466191528e-05
3.92135698606897e-05
0.000250110543888992
0.000184585687395463
3.64163613890061e-05
3.55997327071759e-05
0.000214143691217941
0.000177684765333756
2.96840275374748e-05
3.73441479981062e-05
0.000190525006959847
0.000259574910800921
3.74566665525287e-05
4.28500434219225e-05
0.000295362756816734
0.000342729436704172
3.77686698716271e-05
4.47173837656508e-05
0.000325403751725902
0.000277108049974515
4.32987085786616e-05
5.53005019538474e-05
4.28152736094511e-05
7.00641072719003e-05
0.000312005174496708
0.000380614668057425
7.36517079912691e-05
6.74546609851003e-05
0.000448586448108179
0.000507067020958944
6.27879071715295e-05
5.64053856577766e-05
0.000444893736568633
0.00043239238512156
7.55691031045301e-05
7.25274727121668e-05
0.000491354935645431
0.000494254263043408
0.000610743776201523
0.00049265062129165
0.000304196721832874
0.000435696024593931
0.000835343580576091
8.29682004190322e-05
6.56624855670457e-05
0.000578071034367936
0.000364047730168316
4.6429069756356e-05
5.11121051030891e-05
0.000461497883516511
0.000754488875965761
6.36777712551508e-05
6.79977207770392e-05
0.000474092880147835
0.0003905122441405
6.02724038686325e-05
5.44095070692347e-05
0.00033385005739225
0.000336780934021958
5.50301284504844e-05
5.30454328879208e-05
0.000499881589749408
0.000950381891020752
7.45094669969483e-05
0.000477705920017277
0.000714510497686068
7.37994323903986e-05
6.30538870708456e-05
0.000583578626358861
0.000505466109979796
6.06682831480891e-05
8.15206084851594e-05
0.000380642182604587
0.000461429124132612
9.745317374138e-05
0.000107548813541252
0.000651450889990652
0.000663904931365142
9.36356484656037e-05
9.22685520881441e-05
0.000973520518150674
0.00178065504320683
9.22430653900715e-05
9.66562406854352e-05
0.00172995858937994
0.00304931652177814
9.71811584970808e-05
0.000114941628885657
0.0027519577538594
0.00283570213907641
0.000115301590393812
0.000115421687425002
0.00519628873087361
0.00411908649746953
9.69202050327361e-05
9.57617366751017e-05
0.00440126821494168
0.0043511159406858
9.59406521237595e-05
0.000107233453181503
0.00760982862213948
0.00412293369897926
0.000107786193581912
0.000112842644083948
0.00320558281072207
0.00234626932256986
0.000110584855806781
8.33180597346024e-05
0.00187448149522067
0.000897065394129398
9.174498099048e-05
8.11796318434927e-05
0.000521350359834325
0.000299577128235674
5.48835095337108e-05
5.80969798116975e-05
0.000792175019201631
0.000560389802453971
4.65030722142908e-05
5.68047631795687e-05
0.000797639993247626
0.000585090314932878
5.46456743097594e-05
5.32584530764967e-05
0.000417802927930062
0.000423345875019571
5.47414986713779e-05
5.40129556880266e-05
0.000430678515189735
0.000389082190345984
4.96088185171577e-05
4.82782003995463e-05
2.61096343977972e-05
4.10091266238619e-05
0.000285045430028062
0.000243860108313378
4.25215759186554e-05
4.55116054993956e-05
0.000224921875533915
0.000334773593498103
3.9830359741684e-05
2.46637360568116e-05
4.25833050049806e-05
4.49184458317887e-05
2.66148899614579e-05
4.53853478024801e-05
0.000428873017736183
0.000443321531822856
5.3183611804169e-05
4.36717196422009e-05
0.000306269584610397
0.00021728123251719
3.63194360757652e-05
3.85246734759342e-05
0.000182477949074346
0.000174447637627386
3.7237306091432e-05
3.26502371971171e-05
0.000129675774189307
0.000127854914131319
3.19763558279236e-05
3.07440817634365e-05
0.000153065900428994
0.000147333117433006
3.34222351832714e-05
2.62135847628389e-05
0.000126219730956509
0.000140629051156502
2.41516612884675e-05
2.97869393356451e-05
0.000168686989544652
0.000213523290230187
3.02038512094059e-05
3.56787176981643e-05
0.000242886154335363
0.000263729338881164
4.08005040887137e-05
3.35269131398227e-05
0.000246842575738015
0.000212325685626905
3.7881942526452e-05
3.89821240940437e-05
0.000204353312006134
0.000265620945827425
4.76889209149377e-05
5.94010685558222e-05
4.76860031297083e-05
7.56719622662213e-05
0.000303479501752983
0.000370091463451946
7.9808989622531e-05
7.31511646347496e-05
0.000430571915695815
0.000575512089831094
7.03185670358548e-05
8.1128833737939e-05
0.000556428628280515
0.000439074006674701
8.01533174807327e-05
0.000373491095821666
0.000294563259494827
0.000184160008179837
0.000124814125654786
0.000137435394731846
0.000211771246588835
0.000223270702162515
0.000156892048586607
0.000281551916307545
0.000472844156739804
0.000651825519528401
0.000108930051347833
0.000110075770483041
0.000962811662478361
0.00158481757112386
0.00011329140298384
0.000113806614085313
0.00159252673881591
0.00170009044861136
9.76773400610145e-05
9.76070293321439e-05
0.00316773653143852
0.00304062439203278
9.69290649311948e-05
0.000115194613821018
0.00303897135383573
0.00171298316177292
0.000111087859357668
0.000112596545760025
0.00129357173142393
0.000935795279340436
9.50892968642274e-05
8.2666087742191e-05
0.000963359783296144
0.000411931057023647
7.35907030827597e-05
7.27879056842626e-05
0.000426028364830298
0.000409497444050403
4.15978230195828e-05
4.91311437075863e-05
0.000463942944438568
0.000444646782772841
4.79832748304398e-05
5.22916077202693e-05
0.00032845401849076
0.000287747083582351
3.9305571144976e-05
2.58730723219138e-05
4.45119979221552e-05
4.64279945682443e-05
2.96885012404985e-05
4.12220545783267e-05
0.000233923115647471
0.000200622237063778
3.53480441105591e-05
3.02131542152343e-05
0.000229983556413972
0.000189634357133307
2.84112080799886e-05
2.34377026644446e-05
0.000175151374183088
0.000148479585616785
2.27931413370146e-05
1.74604013632893e-05
0.000125589192149403
0.000111403135547077
2.2238950018589e-05
1.82548696770783e-05
0.000107117351348271
0.000108725147289174
2.23675823585509e-05
2.32659309385898e-05
0.000107584805693329
0.000106056310403322
2.29378090967464e-05
2.24586511021976e-05
0.000106097468164273
0.000107900011956891
1.82067228279506e-05
2.24071333871114e-05
0.000117326918530538
0.000135193723247407
1.78626629667888e-05
2.32322336834572e-05
0.00015500879860025
0.000188945217353777
2.53627795333689e-05
3.08944543053457e-05
0.000212735440754381
0.000181841181193737
3.07866489776449e-05
3.30056843470873e-05
0.00017522713446639
0.000160750464515369
3.89653745109791e-05
4.30190967568469e-05
0.000196591730289342
0.000204872684704659
4.97854379151199e-05
6.12491322612765e-05
0.000293234802678289
0.000348571402591671
8.32124469933802e-05
5.38965572060025e-05
6.98062167983784e-05
8.07880404452662e-05
5.8737668752412e-05
9.36984618224333e-05
0.000447575118206122
0.000550207531532597
9.5772654109072e-05
8.75151725903474e-05
0.000419556366302529
0.00045473802980924
8.08755656588311e-05
7.61891905317724e-05
0.000495890045833305
0.000570404446871508
7.95928562557054e-05
7.68582070695238e-05
0.000571027375026598
0.000522129972012802
7.24941526090756e-05
0.000507900550467163
0.000360829792555937
0.000410961314011279
0.000383208862478996
0.000434776874016017
0.000508636866911736
0.000626723790511369
0.000111646178734233
9.79990794795949e-05
0.000761035387896453
0.0010570811416871
9.56959792418163e-05
0.000816170926387631
0.000766910899612229
0.000720818018152396
0.000944588077023158
0.000110153938440653
9.55783724864319e-05
0.000977307454776177
0.000973070020449274
9.27812041496776e-05
8.84732992970741e-05
0.000949001502594055
0.000595219285796591
7.66652458682661e-05
6.5992339806032e-05
0.00071365972685454
0.000639860960186709
5.96329831995688e-05
5.95944261232256e-05
0.000727181604494208
0.000593280442005365
6.46333962160819e-05
6.52893937943216e-05
0.00042947196212804
0.00034521169683844
6.14289437310049e-05
5.35113712063272e-05
0.000332276085277069
0.000304298518411548
5.12048425239063e-05
5.02294946082998e-05
0.000255779672199269
0.000220470550280668
5.84130069612107e-05
4.90957264081144e-05
2.98404297144009e-05
4.30231985235117e-05
0.000216316090251811
0.00018191703846805
3.62256515246237e-05
2.86749085244166e-05
0.000196946156549267
0.00019028783928292
2.44199621694562e-05
2.0810606142438e-05
0.000129756026132829
0.000145606146965399
1.61650078814578e-05
1.78950627800415e-05
0.00013276864022395
9.69303143297953e-05
1.99161730928589e-05
1.60090903114793e-05
9.70558287187082e-05
9.47327882632955e-05
1.92147803252926e-05
1.66962234168375e-05
8.55866394074838e-05
8.05929152100129e-05
1.90334111222516e-05
1.6932308535062e-05
8.34570857615577e-05
8.96714879225379e-05
2.7600150030666e-05
2.0795466817627e-05
9.73744821545227e-05
8.18177719002431e-05
2.49157516320213e-05
2.6138191268251e-05
8.70078179095475e-05
9.39906193107893e-05
2.98388189930486e-05
2.77898747332341e-05
8.96213399270825e-05
8.61868107205183e-05
2.08832652053635e-05
2.47606022091132e-05
8.13272299506512e-05
9.26878277059535e-05
2.03095430106251e-05
2.29765369301529e-05
8.94692338712218e-05
8.31939493408662e-05
1.6551884612706e-05
1.7311018462134e-05
8.31403027524855e-05
8.759307730879e-05
1.70456613241904e-05
2.0660961544035e-05
0.000102311666081638
0.000109488185559629
1.66209589076225e-05
2.0363796269706e-05
0.000107123961876684
0.000146098353943813
1.86460429571371e-05
1.7840979902833e-05
0.000182754713345427
0.000153802709949009
1.86672364015744e-05
2.08133269227923e-05
9.63111352499562e-05
0.000102191684589545
1.5761769353933e-05
2.25123501791912e-05
0.000104173826370397
8.97036292459185e-05
1.81160495509815e-05
1.78580605031723e-05
8.17225115260293e-05
7.96234607305153e-05
1.67251783296858e-05
1.96888484696462e-05
9.02659112752247e-05
9.61103549088578e-05
2.08001813884207e-05
2.48795104499428e-05
8.48472779787831e-05
7.92343077618459e-05
1.95893005366227e-05
2.5174543192857e-05
9.49891555026875e-05
9.80627281001553e-05
2.60036741341849e-05
2.46536599858885e-05
8.74929551172202e-05
8.88444428964855e-05
2.60187298109296e-05
2.08514270677827e-05
0.000103785161151883
9.40137040316345e-05
2.10798037842839e-05
1.63189401909254e-05
7.895053968153e-05
7.91699201729445e-05
1.83403631811508e-05
1.77079153215367e-05
8.81669254120605e-05
9.60102768612454e-05
1.99237702894715e-05
1.56335760245299e-05
9.13123485239861e-05
8.88551159263142e-05
1.97518093317204e-05
1.85101636449998e-05
0.000126912812528783
0.000160717270443721
9.15222256410004e-05
7.98218563055688e-05
6.09824381351433e-05
5.94078540060765e-05
5.9696902446098e-05
6.74014607254799e-05
8.71914737168044e-05
0.000126565944599187
0.000248298510742595
0.000334323896900369
0.000498991284791965
0.000653327454536242
9.51492159441234e-05
9.20636896742223e-05
0.000668881893211048
0.000555433766117718
0.000100829730450489
8.19145961774548e-05
0.000493395047555819
0.000429965916591767
7.27365845863992e-05
7.00766966036638e-05
0.000460658991314699
0.000472252200729101
5.75408111699723e-05
5.61355149314167e-05
0.000519651972303761
0.000409993338178962
6.1735716709935e-05
6.59729842321673e-05
0.000358325703575139
0.00029728455108142
6.49507887070682e-05
5.75354871690153e-05
0.000266659782368883
0.000272628517332134
5.66400329357027e-05
5.23366091711075e-05
0.000212345575609433
0.000197588581528045
4.85411582911755e-05
3.41768499512758e-05
4.49592456830002e-05
3.97775821932949e-05
0.000167926431841785
0.000185765464520524
3.07580246821841e-05
2.28623168939856e-05
0.000154342147767749
0.000166515545168136
1.92061265796874e-05
1.96837185145877e-05
0.00011968184778894
0.000108118883064366
2.18775021465043e-05
2.15337660102176e-05
9.81992104278871e-05
8.36819602141726e-05
2.34643549848236e-05
2.27204863560838e-05
7.51392765087677e-05
6.94796441857739e-05
2.25622895412792e-05
2.29091821502033e-05
6.05778754820268e-05
5.42592475233191e-05
2.42045088218408e-05
2.39664189882204e-05
4.96958697235533e-05
4.53828080861465e-05
2.31925950650341e-05
2.10099014636133e-05
4.31059165279775e-05
4.01373839102252e-05
2.30330503080577e-05
2.4660330582079e-05
4.05297401858036e-05
4.03271817212604e-05
2.46571340222319e-05
2.36914407756671e-05
3.99066925363763e-05
4.12762492508857e-05
2.26921655220762e-05
2.33645444792441e-05
4.19487048721522e-05
4.54260245505762e-05
2.24799631237859e-05
2.50689600240751e-05
4.99429611579531e-05
5.56148537702441e-05
2.3878657295773e-05
2.28772770550274e-05
6.15939744222274e-05
6.68230792834082e-05
2.34168656550795e-05
2.40384250628208e-05
7.66236152090496e-05
8.61217895703531e-05
2.34732900978674e-05
2.40451788888623e-05
9.3882494085417e-05
0.000120176812812556
2.33502973012535e-05
2.20916421679451e-05
0.0001182106540881
0.00011690327202405
2.17144197847933e-05
2.24702128843388e-05
0.000149402947443115
0.000142334828602582
2.8533280472703e-05
3.62596411661236e-05
0.000141362415085636
0.000153420994082742
5.13306267161459e-05
4.91165851599728e-05
0.000173897709924991
0.000183005057017196
6.40097634298221e-05
5.3279451328672e-05
0.000223614659223369
0.000251366242435706
6.21413209405968e-05
8.32452455726986e-05
0.000364344864409657
0.000466467121250915
9.54892018900901e-05
9.11374778534842e-05
6.1436199231181e-05
9.86140606503054e-05
0.000614893827111649
0.00075325229902426
9.40923904603538e-05
8.92433078653543e-05
0.000688813659539344
0.000666473968840261
8.33487655539499e-05
8.07558533319522e-05
0.000590518132541736
0.000677874693060868
9.22789362959188e-05
8.08968222826821e-05
0.000732395818878719
0.000958352212134765
8.14130286906779e-05
7.1201228818433e-05
0.000641038427184696
0.000650417632066303
6.57891674745814e-05
8.70944193209401e-05
0.000560711071457375
0.000785839203533681
8.61316338428256e-05
0.000110729062160493
0.00120797170037599
0.00109702560209281
0.000116994350410998
0.000139773503235642
0.000968363360302099
0.000852618390264458
0.000143606617589142
0.000119846201450308
0.000573490749326847
0.000532850901482961
0.000118075739725608
0.000108057135954436
0.000614293126063779
0.000430094353495282
0.000394790499303217
0.000431359924237074
0.000548622632312628
0.000107515172690012
0.00013765235630886
0.000817801294734977
0.000874349061240228
0.000117603068046025
0.000103930033285544
0.000863087352131742
0.000604797220926197
8.49274314349453e-05
7.7615188404742e-05
0.000430977700138443
0.000449247704426079
6.85368653373702e-05
6.11445907542517e-05
0.000429309278718475
0.000477291631113253
6.03380707704998e-05
6.91083385244581e-05
0.000494355170701163
0.000382182586642749
7.59842751591063e-05
7.49073654143793e-05
0.000342741103576286
0.000285229843993811
6.78745576970608e-05
6.82410322939821e-05
0.000317604958808436
0.000225875957337057
5.86866274463149e-05
5.42347922206419e-05
4.3506526241893e-05
6.05054901558084e-05
0.000221606214401373
0.000171960815858057
5.49307467280533e-05
4.79168388909328e-05
0.000185978175174202
0.000182035444565788
4.8582202276744e-05
3.63325372714896e-05
0.000100496011480355
0.000113061438411962
4.83004286313267e-05
4.90259009853768e-05
0.000106378611974283
9.56964303462373e-05
5.12171615413025e-05
4.51920804490969e-05
8.05986555367434e-05
7.8393932305429e-05
4.08554855923985e-05
3.81391878145531e-05
8.15060414616357e-05
7.83179854494586e-05
3.84393517977021e-05
3.71110383026552e-05
6.93131899089521e-05
5.43515024858047e-05
3.54137203845716e-05
3.5247945438792e-05
4.48644287236833e-05
3.83487083867826e-05
3.32109833022792e-05
3.15030497445463e-05
3.47814661883308e-05
3.26930102892132e-05
2.94844524017144e-05
2.89228198501979e-05
3.15623507814365e-05
3.05556275639148e-05
2.74403770270632e-05
2.74879315510222e-05
3.01730526860013e-05
2.97089369044227e-05
2.63123641100333e-05
2.66197746777739e-05
2.9757899147001e-05
2.93398405889699e-05
2.65216420788927e-05
2.63179079813675e-05
2.89009338573613e-05
2.87245269340599e-05
2.73385692949419e-05
2.75801575347728e-05
2.95525620350635e-05
2.95225281170845e-05
2.73258416287599e-05
2.70987451728014e-05
2.88335268757694e-05
2.88831259797738e-05
2.70321175327675e-05
2.70898673046402e-05
2.92820650964883e-05
2.9530507466863e-05
2.63243408055473e-05
2.69384771108606e-05
2.89962959326544e-05
2.94172814236386e-05
2.74874788018595e-05
2.7296923158982e-05
2.98220673530956e-05
3.06012749403823e-05
2.83317174754142e-05
2.81942263635915e-05
3.09624277121365e-05
3.19370678389899e-05
2.97688803026397e-05
3.04595997269705e-05
3.31647722768351e-05
3.54194656310319e-05
3.25140794806985e-05
3.38301105872896e-05
3.90722724679505e-05
4.56320578884108e-05
3.61560603821988e-05
3.67740092173812e-05
5.54980891932481e-05
7.14595315580121e-05
3.89473432381957e-05
4.03980017204401e-05
8.09449964645443e-05
8.66342868678504e-05
4.00137797426625e-05
4.3073061949815e-05
7.99048375683225e-05
8.48592333484303e-05
4.59634981476663e-05
5.24359096779205e-05
0.000106851400261146
0.000117370719408517
5.32488170581517e-05
4.23185601765337e-05
9.56123480629369e-05
9.37652021891008e-05
3.27176345567548e-05
2.94320131806721e-05
0.000103156398463862
0.000101499378496238
2.54069493714505e-05
2.66429911844046e-05
0.000108576475317853
0.000112693275837846
3.14406187535236e-05
3.92126638267042e-05
0.00010867146625484
0.000100955408644309
3.72950983327512e-05
3.25524740707284e-05
8.1430317639414e-05
8.07575432074076e-05
3.75015055419183e-05
3.16506258116263e-05
8.2918653519008e-05
8.08261771663891e-05
3.20614750180252e-05
3.1190630272093e-05
6.93357817472358e-05
5.48500556415524e-05
2.92764086524457e-05
2.89826627704251e-05
4.39953806540485e-05
3.71237190549575e-05
2.67556750868993e-05
2.61332638003724e-05
3.32710183169086e-05
3.07100355838967e-05
2.42919137573734e-05
2.41477280184295e-05
2.93176956827865e-05
2.82313304160339e-05
2.25951887901683e-05
2.29854301288991e-05
2.78087680054278e-05
2.71447847697136e-05
2.20526249133945e-05
2.24117096357298e-05
2.68140503705572e-05
2.63539778964841e-05
2.19792518765438e-05
2.13664363889379e-05
2.67675932800906e-05
2.6542846800928e-05
2.19456535972158e-05
2.20871210918703e-05
2.6107261222632e-05
2.60689109832443e-05
2.21300830773547e-05
2.20409967843559e-05
2.66739993079161e-05
2.67322046979413e-05
2.22389586244169e-05
2.22992107284848e-05
2.61165198828498e-05
2.62757977990237e-05
2.14988188342396e-05
2.15936773747116e-05
2.65896473442285e-05
2.69052626029909e-05
2.16197831708538e-05
2.13426898380701e-05
2.69497855982429e-05
2.74166814866109e-05
2.24671841748691e-05
2.20998716422901e-05
2.78377580756528e-05
2.88523713208935e-05
2.34853393427935e-05
2.35893436992821e-05
3.01198845600524e-05
3.24908634139218e-05
2.54828642882941e-05
2.63539309041272e-05
3.62608783267734e-05
4.28239507801385e-05
2.82680802253613e-05
2.82185355622946e-05
5.37837571614195e-05
6.68707942097522e-05
2.98431903236087e-05
3.07618573452469e-05
7.77520314146895e-05
7.87003938023205e-05
3.02629682191208e-05
3.59105177321858e-05
7.98333117342812e-05
7.81706909252283e-05
3.24093539065521e-05
3.05757019194411e-05
8.10645680318668e-05
8.02621312375478e-05
2.63449199028944e-05
2.71033360791797e-05
6.94692101652358e-05
7.01393489922447e-05
2.65680902226164e-05
2.50040702858242e-05
5.32077337514472e-05
4.67455193805509e-05
2.52905704312394e-05
2.34781769364588e-05
3.58730286719138e-05
3.39668142387039e-05
2.32722484719031e-05
2.12861922684239e-05
2.99396074444384e-05
2.92445064873991e-05
2.16709755953242e-05
2.01263502342601e-05
2.76547054394444e-05
2.72542862916168e-05
2.08773657568158e-05
1.95659598208616e-05
2.64721945513754e-05
2.6697606270202e-05
1.99581503398688e-05
1.99632840841941e-05
2.62290990350113e-05
2.58323187790773e-05
1.98771117606326e-05
2.06005986942718e-05
2.54810340560813e-05
2.64293098262529e-05
2.04444369363592e-05
2.02900533714685e-05
2.64430540817093e-05
2.54318375603709e-05
2.05600587211465e-05
2.04855018165144e-05
2.55015175010246e-05
2.61021739131943e-05
2.02755192931266e-05
1.97146810833126e-05
2.6198149769975e-05
2.57967298992181e-05
2.02900429848241e-05
2.07735014821755e-05
2.6548421143984e-05
2.68231354164568e-05