/*--------------------------------*- C++ -*----------------------------------*\
| =========                 |                                                 |
| \\      /  F ield         | OpenFOAM: The Open Source CFD Toolbox           |
|  \\    /   O peration     | Version:  2312                                  |
|   \\  /    A nd           | Website:  www.openfoam.com                      |
|    \\/     M anipulation  |                                                 |
\*---------------------------------------------------------------------------*/
FoamFile
{
    version     2.0;
    format      ascii;
    arch        "LSB;label=32;scalar=64";
    class       volScalarField;
    location    "2000";
    object      omega;
}
// * * * * * * * * * * * * * * * * * * * * * * * * * * * * * * * * * * * * * //

dimensions      [0 0 -1 0 0 0 0];

internalField   nonuniform List<scalar> 
162506
(
1.03451135155598
1.07661890579101
11.7856352063138
12.4495956208762
16.6335715342038
14.258570525255
1.59027255408977
1.2183244098762
12.9040130794565
13.6380660072987
14.1861245382061
1.10881781924498
1.11131642526944
1.01921596577044
1.00298028200094
1.00607055762579
13.0955832809658
12.3548789322995
1.02202785626262
1.4660682089803
1.6657242537282
13.3401689901279
12.772929634008
16.5121417738339
15.9606933537675
14.2447932297644
14.3964002532272
1.00632403726727
11.814375710102
12.5091827187069
1.00241071913433
1.00026636308093
1.0019975683297
1.00002297810418
0.999894495613808
1.00379895873551
12.2940992927707
11.6840030113542
1.00902103844569
1.61902046502605
11.672997300198
11.619699433804
1.47102031348313
1.67965547044433
12.4313225359524
12.056006768867
1.13995384668515
1.65960437484465
14.5181257694313
17.1148228557173
12.4965714181497
12.7377039555356
17.8384621101259
14.9943033714822
1.81332662542348
1.52611537735406
13.6490034976113
13.153564487064
1.44843318035012
2.41222311101936
13.8170724007437
12.6470114965439
1.60132960801394
1.03328994082823
1.00676593368551
13.9019360240224
13.0361244338352
11.686915854018
12.0024580869576
1.0021633528537
1.00816398534743
1.00253180325694
1.00060276031371
1.00199232414601
1.00655176558126
1.0076088607671
1.12008332947939
1.31298986960836
1.84972069072013
11.9884520674362
11.953260435875
1.53240144701438
1.00559833964835
1.0017902429266
11.8114412085862
11.6054414566239
13.1762209660037
13.9108967656968
1.00388398160807
1.01000401273633
1.00011766749016
1.00011099511145
0.99995563519945
1.0000018222726
1.00047024424277
1.00002770777922
0.999912168679357
0.999839447620651
0.999860192741551
0.999923089588164
0.999913019652857
1.00004732647904
1.00906733698379
11.6805824312467
12.2896222731318
1.00372064680798
1.00227580072462
12.4965942483805
11.8041478393389
1.00620016336378
1.46887976889961
11.6100199320997
11.6697583672423
1.61850762300455
1.88056904941771
12.7244947363701
12.7292527058223
1.88180785090335
2.02042946476238
13.4199641779305
13.0096081667019
1.80742846445889
1.21735078096521
12.3969395876178
13.5338486422331
2.28593139755283
3.11166686694804
16.2309182743855
18.9490446496442
13.5103142478312
15.8230980263178
21.7773487818128
19.4480094441614
5.72826242825808
3.60462197121187
16.8257530491375
14.6522864365288
2.33573355454333
2.66060482532599
15.5961485842561
14.9065298263791
2.43033203666207
2.66618573492593
14.6605846978015
13.524593267883
2.52094441387989
1.83661521622872
13.2115019280537
15.2974365299822
3.19406369146575
2.07702925965629
13.2957413593168
13.6020687179457
1.88367029729146
1.01321974684755
1.00525609246031
14.9669423863299
13.9111836216843
12.8154070408118
13.6253564106965
1.00477211611089
1.01060979602996
0.999925127665072
0.999940190274718
0.999911636789391
0.999769545286436
0.999802939582932
0.999922023249224
0.999975866594987
0.999986139877009
1.00050460237571
1.00007363324246
1.00035595696506
1.00213482195228
1.01995775198401
1.00330904050038
1.00433198728161
13.0739494132116
12.333304164496
1.01948459070456
1.07036063863467
11.7628796713826
12.0304692315203
1.13312442562214
1.67636372214097
12.4187724890215
12.9948427747049
1.80499891013069
2.01897292542436
13.4132753249364
14.6137023050297
2.73500692940609
2.74788363776647
14.6352641835793
14.1965470762103
2.60861847240378
4.38029854862299
17.4532117822534
16.5670941176173
4.19649135503028
4.86900528620573
19.8262621946956
20.3775783482292
7.56517196102707
8.23105658724485
22.4226176951599
24.5387435808195
7.94553236629609
5.94792714483771
22.6293804693712
24.4155546961044
6.83572277945501
8.93987198718281
32.1975343529786
38.3473890050531
11.0841563611068
12.382314150631
34.4617616783366
37.3122579521524
54.1382601391071
32.0019189602046
13.9698867395051
12.6389953045592
30.0772234582306
28.5537733459226
12.2449158615426
11.8796055951489
29.9721897362245
40.5647335603881
29.1484295509688
27.4414660642275
9.20556091519829
23.9758033234289
32.52449143406
28.6462954017866
19.6722315916376
7.81888664885808
24.4908186957807
20.6068835448428
6.08287430940361
4.32474981436449
18.8775461002182
16.68853290658
3.19991728381947
2.95986578968589
16.0787490243284
15.2883835286617
2.75583060796898
2.07571927532981
14.8633723242669
14.1534851898047
1.98353823588751
3.52581882076768
17.1323348103508
17.1379419444495
3.48581898162237
3.09092224245168
15.3369716040161
13.2263776255052
1.69013615694622
1.32003301864629
12.4084187773177
12.4014252523873
1.32872200095758
1.01034392206286
12.800999415975
13.6086987884431
1.00482129006412
0.999955114377275
1.00005121778815
1.00101021793809
1.00003224349269
1.00459146764865
1.01696298350831
13.8699302629621
14.9182942087126
13.8559396306612
1.00534144462388
1.01138059208525
13.1299495800837
13.2725959535532
2.09852455828244
1.54314370644633
11.9440084532127
11.9906310288001
1.85635170487989
1.00790267674379
1.00225606459887
11.9725405321246
11.671559460976
11.5794550241324
11.7742794656471
1.002030239346
1.00590997029623
13.0125232148867
1.03252472018593
1.00643549564814
13.864316816983
14.1613283674403
1.1020443503014
1.10379136541115
13.4366361459811
12.732186027144
1.31369692502147
2.01800223926612
12.5954317452116
16.0140903981746
13.5478548050217
13.2671852156696
13.7992790550712
1.16681124830622
1.15138191996152
13.1131163040667
13.479717794782
15.4106460635315
15.3805359702599
14.4627937332164
17.0622303438596
12.4681528818818
2.09642509963091
1.5514690108554
13.1431943230052
13.6570865481741
1.65304256879979
2.26258142441606
12.7038593267377
17.7920596814312
14.9512354520772
16.2934130550014
18.9427540721571
13.684071275777
3.75512230333656
2.3633894035507
13.5186548978705
14.159671060971
2.59239977159244
4.35626548044008
17.2877586048569
17.8695745630224
4.46162890984647
4.48548468361347
17.9414422286678
25.4998641019405
7.22179426989925
9.7563977296573
36.5057948619574
44.8664099204624
11.2438658424488
10.8287087904404
43.1601474734226
52.0920982930156
16.2506463496919
16.1001784230389
46.9555227038226
40.6747310053148
15.5410162551
13.9858168275897
34.4363075545093
56.5135671054677
41.2216917354723
43.8619698820647
54.5483424086123
36.0527619736272
15.0809478360474
12.9394719197844
34.7743043731344
32.4202004599356
12.8037123859999
12.0707750208329
33.9712898676548
32.083270565924
10.4324767952433
8.95287778404456
26.6987021355345
23.8998569714415
6.92381822404907
6.47916828422526
23.8072867491511
21.7574293536684
5.71746439678729
3.67186783385709
17.6668781730955
16.8705753621586
2.6216443329482
2.19036571354327
15.6088470858202
19.5022745607305
3.86922755348871
3.73977378895495
18.3531752231227
18.3337693690371
3.74554562315144
2.04823036644392
14.8214526562601
14.0847843126492
1.91174386255097
1.91593286186087
14.0793627181974
13.225004867193
1.69043414990615
3.10442543892353
15.3372082098452
13.5831059598192
1.91021756708777
1.25922652820648
1.0012880182801
1.01041959258123
1.01817111019243
1.0008200286603
1.00030764833712
1.00016528332773
1.30022285432684
1.11919319869143
1.35729433404539
3.21760844044227
15.2979869018928
13.2092301642671
1.84653715217199
2.52975913394144
13.5313941279705
13.8231914727761
2.4304531628328
2.47204639094417
14.9296639391797
15.6585092953382
2.76003062803914
2.55228489296699
14.7300935487498
17.1685501107961
4.02700548707009
6.29874550599182
16.4061659569268
21.8708617487194
19.6319245076421
25.0733212733402
28.8458847647463
20.9198923786701
8.65686590413272
8.15125708159984
21.0107016893943
19.741486134409
4.89570363561385
5.97749526380201
22.1123459857113
24.7820533238785
8.62715017207224
8.89707059164327
23.5316265025475
26.0069897934733
10.0167583726908
29.1686551448228
33.5296362344587
43.4679143908165
32.467885625082
13.5293763993671
32.8247788650131
34.4755103974283
14.8063727632214
15.9707487168392
39.0586012898118
39.4439815807935
57.6530065842542
41.1130762054566
17.5163326670588
14.9898663275509
36.2257258082264
38.1868950689841
13.0358401319007
11.8960747019661
42.5459688788125
44.1945463020432
11.7011965115687
11.3351178088956
45.0372754432318
45.3480806407391
11.2926914807348
17.4199226141527
54.1898688984332
54.0371828492731
17.2444150203804
23.3483377182747
71.4080978810535
70.00141063065
22.3442269740017
21.5125413652638
67.1429432066522
62.635465392931
20.6828311256297
18.4592652869352
57.2294717701383
50.6731649607587
18.5465049778081
20.9522002989996
59.5352142384024
47.0139036803178
56.0146293444345
37.857962693227
15.9115056704379
13.1902637869678
36.4491888697657
40.2651884141347
12.3544054148013
11.2928267306548
38.4665564149812
36.0896217914918
11.135615115382
8.26581160612659
30.4490933859042
27.844593892428
7.59314609555836
5.11681195625365
3.31850912786018
1.6769390045048
1.7802064786333
2.29300627746019
4.54841974252048
23.4465367888422
22.5422235761971
4.70015023438762
4.45787186867819
24.4092601884026
26.6805092908458
4.939554561663
4.90125201933166
26.0806256896416
28.2895461100602
7.48799196236121
7.23721850687468
29.003160462164
30.314898300491
7.14975893551609
8.75554330614375
33.1839278876408
30.6037947469219
9.06137236246636
7.05122946166564
27.3167357235041
4.74697660001317
9.43925547352464
30.586998037437
38.1764691856632
11.7933440374403
11.1792140776213
37.0492098610954
31.2547421652836
7.74505127208106
4.84606020849146
25.4125877370237
25.6193413885618
4.79474110980338
4.82565883338594
24.6200330912155
22.5845814876512
4.69217703947189
3.97867921803853
20.680971600055
20.6445341883325
4.00329186595708
3.88740030431598
19.4683367395184
15.5074351645068
2.12247101697034
2.12949171087174
15.4929354299698
14.8127186527863
2.05691646559726
3.76001427416222
18.3120032023401
17.1300889648704
3.50282349368147
3.53833075370241
17.1283016150276
14.1430996515688
1.99325350538275
2.67844147399451
14.6655893517383
15.2818586962821
2.75805538718238
2.94218857106898
16.0348021260891
16.9463023126197
3.51369416172054
4.74524521871673
19.4353565155354
21.5864373133411
6.78874459503349
10.0434170725533
28.8417076039704
31.7879206431776
13.5129571578084
15.0200505384515
40.8200485108882
43.2490542605875
16.7969123790631
16.4154915185296
42.3816742777534
47.1529850638819
20.7871044144346
20.8363707992746
49.8183261563121
47.5356222890073
18.0409288895007
19.65086466709
52.3305995442754
61.8648014012276
85.4111588571714
76.2917839205714
27.9269873621089
30.6895274663798
78.2888733211715
71.3664759897068
28.6159467232154
23.7692281578482
68.0224837136818
85.5393805833094
55.5439165316445
49.1744759416849
73.4744438535246
53.4715912307432
23.5455415641859
21.6419016407715
48.6657012393325
49.282890332056
19.1598381044217
17.6700098446221
52.2889953938042
53.3299272509637
17.7649564540306
17.5233412528468
53.8435224467364
70.4459571442513
24.2169605545511
24.3444790742225
70.8187854491865
71.128265073546
23.701741444003
23.8429568362532
71.1739586937861
96.3631667110263
34.5786645374461
33.8779257385668
97.0489209228321
95.7656830542365
32.5646189976231
30.6824733688718
90.7240528601783
79.0965505006608
26.2230757755764
20.5290851725174
66.0007167772203
73.8018426380442
22.9463417575537
23.3489222871818
80.7372393055267
83.7878522165977
24.3296490462792
22.0944039262033
65.3072353101923
49.364943160865
58.1647238153791
39.2759490647794
16.6812111347579
13.4829172165042
37.8999333462628
42.2953400784647
12.6097898357463
11.410578516288
40.3311702936658
34.3253769616597
9.19903481375166
8.64925044833607
32.8794146325975
5.82418062396369
4.05704217094104
3.84278280195549
4.60315510086715
2.65925209764849
2.29881511708142
2.06309623632576
2.22850552381461
1.45128357682808
1.27249156272274
2.34863808258646
17.5293037721172
16.8676995440085
2.23264152560127
2.16980066369607
16.1810469201463
16.1472525525678
2.15326643238889
3.97512266626068
20.4910381686799
19.4159721995308
3.90509466893548
3.82419788956474
19.4295265685081
15.5312528431769
2.18298484721453
2.89735673669877
17.1087360040311
18.0302707938755
4.05208434956025
6.4892634439092
23.3511335347157
25.729804265597
7.96636957802119
7.66119437048415
25.6651247281033
30.3759650491873
8.71335676623667
11.6666373620778
35.3627279462807
40.2740397779826
11.98177630361
16.306966943485
48.3620876177339
56.2097829505926
18.9527448535786
29.3444341005742
83.4759076018123
96.8259273834838
67.1664971184039
65.9364956751561
95.6105599032987
90.4599305292246
30.6093693880751
36.3406711391196
105.459637536755
106.086586274421
42.174067159974
41.2248901377686
107.556116119186
131.395052110865
46.1234711774351
53.1650283302484
147.583824775425
142.412463716952
50.8737555881315
51.9977410555837
141.384769867025
143.79700941284
52.515877845712
52.3960565356244
143.926521217688
145.018241795357
52.3338643416869
52.5696149459494
145.250356230147
145.556626816151
52.7621246873821
52.0766439813687
146.106228929792
146.239766520283
51.5359073376368
50.2709912262681
148.138100838361
151.470441340298
50.3395983171714
41.4321857901795
131.418008910275
96.5431222877788
30.6189175242461
32.1072512673761
108.314160735389
113.734314798835
33.8215782785716
36.1156435583769
120.513741352522
86.6157944442663
24.7221976008315
25.9841275358426
90.2483767209746
69.9028449592099
23.1953948343712
17.3778017333711
40.7939018542682
61.4854799143102
51.7833191596849
54.4764989908516
65.6014549427967
42.8254827544254
17.9028570006795
14.2905378985216
41.4655073098283
39.4151440608677
13.7628499184026
12.9698622603399
44.3951127238205
42.2871258380607
11.59164275614
9.43699912667876
36.333410920669
36.5979395862534
10.697708555779
10.3442947433469
33.886819737899
5.72105943045329
6.36110654142909
4.98203182244479
2.31405986139289
2.48116922602129
2.20191143070047
4.32144170034021
24.3355618554865
23.2235697710261
4.20930314884908
4.13144279189122
21.9532546364988
1.91442006688312
1.16200474520143
1.14769444728424
2.21396466435453
16.7715929589435
21.5703441535828
4.02313057911452
4.0319157825114
21.7662094847287
19.7543363871697
3.56328715414702
4.47936088304993
23.1043247151893
28.0426732011818
6.95372567487305
8.82396065379964
33.1646897480926
33.8773170355181
10.5075397145691
9.04014699590007
31.3621033531254
33.1522059630877
9.3134554823498
9.79461443117113
35.5298563353773
43.0264372391767
12.5334033700373
17.300681483191
52.3135765353666
55.2906474084598
19.3623754757259
19.5948527657682
57.3786248608525
67.0139672129159
97.1069560193458
95.267635542606
31.6808541401349
37.9074014595595
113.881008264262
127.132501404152
48.1581341557269
53.8988437231715
146.718616772552
192.66868553317
59.679396552614
65.894796548089
258.221732779939
295.096991325667
66.8638232768348
70.6919444093674
283.715359171967
277.237174774196
68.4200602228008
70.5009135012526
277.797763570155
276.98923217877
70.9555577344022
73.6813951078498
280.316822898077
284.986871690959
72.8875574225535
72.537732979256
286.317523517613
286.230506927535
70.9639571641406
73.7454747741476
287.300324524001
289.90611594713
72.8900871323793
71.7500804321814
290.090147424724
290.139521274862
72.6964470157253
73.3809122365776
289.755808158461
289.252552690684
74.7057873093662
72.0912740797681
288.051450384581
288.421471915661
72.8232554465681
72.4542040213748
286.612506783809
284.156673194704
73.0736016226391
70.4280904253867
281.257129191722
282.263282350543
69.6464670701041
67.0774612288294
281.87224459277
287.210532713428
67.8162539763747
63.7522963952857
298.84274327322
259.131505713681
62.4436543717138
61.9900656275144
247.735144325457
238.771614677182
66.3001268750215
64.9398231373314
232.990471371436
230.224441634493
67.3422056123288
67.0255770734598
227.438188297967
227.756626779156
69.722246707708
68.7084013418264
228.148615061501
228.37389426389
69.618252612866
68.4398195735518
227.494854808848
227.748612999189
70.3195240947813
69.3404773528722
227.561170915355
227.718040574233
68.9146561772131
68.2720019146753
227.467454909153
227.228205930371
68.8015931125998
69.2255895543216
225.629914768854
225.168071411967
67.6446665676903
69.2694445698928
225.508148520746
224.942090233992
69.0379554138492
69.8512659047946
221.686698816607
220.498883015305
67.17516491695
67.7267771425385
222.216951901266
224.41826011758
65.7331673191392
68.878427627852
230.970360833286
242.153990582451
65.1574706061054
66.3935856370048
36.5866944003248
23.9431596307904
13.2995049944495
10.5592565604463
7.12121734305942
6.01112722941447
3.5728516588681
2.80074326341785
2.4686734074114
1.85850706323328
1.80222886329907
4.13578467013818
22.6569752116348
23.3843189001029
4.32655829476716
4.54504502606133
24.9493273490574
25.1188402822865
5.06159356735652
6.76669232363032
32.4937688372312
30.9133054776772
6.54136702299191
9.70627984309154
38.6436541509642
39.9233235756843
11.5085279778275
9.66670662068452
34.4529398902793
36.6063634236471
10.0069287844478
10.3534673532956
37.3053758317972
45.2929343719975
13.4489743605228
19.0720686727038
57.7635249953516
62.8677787518309
21.2157406190778
34.9860365571909
75.5385464788799
105.861843204276
95.3229972116507
123.213960077637
39.7000040199912
50.1050574819681
144.617191812699
191.9557196704
56.919463631395
72.4705761024913
290.978488612448
333.50438655783
73.3978294943664
73.9686238007317
314.903553625434
298.772889155488
71.3115910552071
77.1467791405779
292.072768667407
288.654183203494
77.9966522977136
82.2577758829312
294.682581324118
299.818157739598
87.0412495513796
92.3495891185754
305.718312817544
309.678171449474
95.2450718999999
98.8381456443224
310.499037159411
310.955169409816
101.318415349197
108.59453565632
312.909501464859
316.467551615703
107.256709125947
106.274627482209
316.195093116122
315.755638058623
108.018515981116
106.321299500609
315.328889905505
314.031347315235
106.445884136983
99.9760524522146
312.217545774625
311.935560565327
95.2291793206899
90.8808066566796
309.671669614119
305.081647469144
87.7620990647849
83.4093297560839
297.830745381199
290.370439959285
79.0538869389667
74.3513672272602
285.14655242378
294.747706839125
72.7924627177062
67.9348023863039
311.172876709668
256.593448243235
59.2879509885377
57.6891446170602
251.849550480885
165.970800724733
44.0695853761238
47.2720810426759
174.484513812673
189.659566862083
50.5040632874651
53.9009635232839
212.517620610159
129.271494943365
38.3899495413313
40.6163767497605
140.959693113998
93.5984637971516
26.2763194113816
27.3320330115326
98.5227013468686
75.2137843407458
24.0969660125362
24.6217125610684
80.7269641863429
59.0924492618214
73.2853713288319
48.9252519944287
21.0642039083446
17.1543679851469
48.0448892739957
51.6552924362413
16.1204065682191
13.4825796762606
48.5274950032736
44.4207159190949
11.8041643564374
9.65166786111846
38.1642260778555
38.5779052376388
10.7734082528672
12.2297883136551
45.7245616819257
43.2680164329176
12.2544003383059
11.3732781407987
42.1431753494726
33.3179622640758
7.09979975274116
7.11514081556015
34.2658423886178
28.4590380848214
5.77133237749758
6.21830111311788
28.4570600402185
25.6361685554184
4.48396493901146
2.57628426115172
18.8750701234093
18.1428398965554
2.48990972032656
2.50540483320479
17.995658819708
17.375109203711
2.34160780648194
1.2790998232896
1.47427293977968
2.00322580206127
4.31544891354629
23.7983984267119
25.3021028556877
4.58833455748197
6.27770228414054
28.1432420473378
28.3050508142549
6.16177483003796
6.6450551903134
34.3884472219488
33.4314417077041
6.50593145706059
10.1146874340606
43.6770119081832
41.6938060539288
9.94507187547687
11.7480071949505
43.0868922181792
45.4254828107644
11.8707204260744
10.2935292623012
38.2784195407012
38.9180924726818
10.8267690719648
14.3186530456904
47.6413909043944
62.7651332229566
20.1208758894189
22.1168039434342
71.3768311838701
90.491467011016
125.806616647051
101.55761957077
37.2879088274954
42.8249066177364
144.557241372038
173.305297824622
54.3039095505408
63.1317610147646
237.021887730881
343.525868986762
73.6362597690309
93.4085039741884
452.204720513187
422.217591075711
96.0488185249344
106.362168971447
424.898473301143
504.268233199362
133.556970785686
169.972952285713
641.514709517949
799.715802702892
202.019200980273
215.677801936164
845.355917296495
859.823730727057
225.924461674374
241.004454178698
863.174547034027
867.151476540322
262.708750763077
284.681007135445
865.347514676393
863.806215840665
304.353253222771
318.825127435634
857.892419533096
856.313335798341
331.54131589632
340.353421676801
850.215240735565
851.101383829484
349.438382108671
354.648309911288
847.91766301781
852.077323606324
361.838466438857
369.778216632862
852.494483902851
858.236454139076
377.803738109745
376.829246299324
866.751278866174
869.716644793857
371.462853063761
368.874723926693
865.628150401575
863.821373701491
376.340843632868
380.361922292054
863.471043057436
861.524656464959
373.324221379385
372.048835663448
865.373148014553
861.986614794492
370.342600381347
369.474821491038
864.495620722003
861.032873987763
361.241827995207
352.787046703213
862.706335993132
860.773949877243
342.999362819826
332.881872971297
865.944186866415
867.085706947668
318.972243963774
303.444950566088
874.449861001517
876.948769858653
283.179654517181
262.770831871514
881.343160869697
879.382066562565
242.637465805879
228.578163586674
876.342826689744
860.191597500138
218.097211577787
203.031686337411
810.504735532877
646.146292067174
170.797113371405
136.030471222168
518.08838156059
458.954284860872
111.134875815734
93.6131789522119
459.034831975157
325.55723723562
67.2444405772516
63.2277220446797
298.862632486981
281.405998391165
61.6871310483929
58.9641790210808
265.338984769147
335.546865534393
71.2328381710894
77.9607889703688
367.141718947162
408.046704152814
84.1093973028283
100.035413925249
400.160332227133
434.922246366474
121.821815732304
160.997943946355
586.806724162639
704.597723711472
194.518049840332
207.425305360125
741.510551476547
755.848551663312
216.637230351037
224.600582486578
761.89970767113
768.017429822173
239.818520046037
255.792381690379
765.682260810658
767.58114904054
273.595997466237
287.764561107428
761.752038620568
763.88505930717
301.081300241899
310.772403904752
759.08211645379
762.746222289041
320.31034220186
328.111903284952
761.250832508782
765.270639639345
336.228594038502
337.132139521102
763.994381035884
766.919885917545
339.759806003264
340.7414826821
763.81057718572
765.766862787563
347.139059413933
343.192831139496
766.332825186677
767.013604352239
337.219476648309
339.563272576734
770.234301854623
768.446144803174
343.292517877461
344.184844681263
760.530785347963
756.067152164656
336.983653350644
329.294530085535
755.090059597119
750.915117401293
322.270196208088
317.392739691692
753.886781293962
751.061039959611
308.228684202744
300.088158262429
756.611498734584
754.928369675892
287.92114037911
274.664386805777
759.28535631222
756.870021806989
257.450599309138
239.530825178161
756.747775135174
749.434046441042
222.760637214805
213.89626508487
743.547845595562
730.151003393994
205.105302541504
193.017943258497
696.01083722627
582.063633232578
160.052670160759
118.550927780174
425.925575017269
482.714396466067
148.224240505614
174.393588343796
546.32123359717
567.33762534475
184.666314552951
192.609784494415
578.227048058933
582.27107490116
199.694909029342
212.117989393799
589.127757599566
589.342872305068
226.07919623133
237.814354094039
594.543997340353
591.797219342517
248.619683513095
258.53075755306
595.659730106927
591.080363786403
265.648819431795
273.986641481082
594.699179093713
592.360417317788
278.509821918771
284.563986101111
595.731454794618
597.112956015898
292.048465648771
297.937781341368
599.847195125351
606.421215792424
297.068981480517
295.194526687352
607.440496260388
605.172795647914
293.128334293401
296.929959941932
605.015776315653
604.382514400928
300.581739247422
295.807543826113
603.004750178411
605.175452720812
295.085205417417
291.624417929859
602.915935154836
603.1821764118
290.910322166902
283.575477628199
599.650039535442
600.733714815059
276.489940032726
268.275472969555
596.480733435622
600.493699822039
259.49019888592
248.658544328375
596.152236386991
600.289122109945
237.20501122088
224.762102679831
594.95215779889
597.051986805912
212.757202100695
201.113267355277
590.511541788239
586.242347431002
195.07393529649
186.881005463763
575.401995770985
553.528037459247
176.249819778094
149.346045473798
487.658644473515
400.167387589168
127.65770885201
99.8489065733449
355.204346010427
353.719015950717
88.3614821696562
79.0620433718953
319.189554961735
311.020080332625
82.943503219481
90.5278356980461
321.731481269697
334.048285654611
96.6825617725014
141.343798728349
426.401503562956
436.018380257777
152.698349708876
170.451410420323
438.624880926868
439.34460089998
189.462289861787
205.879865743798
439.394218182341
441.488155743358
219.135835472098
224.244124010526
443.449260870054
443.465530924913
228.486075202252
226.135219515285
444.462436276075
445.549636398914
226.961028181685
226.289417848362
439.602267153287
436.391964577016
214.32508713214
203.693382845415
435.629551132422
436.087587761977
189.414563480913
171.797836361097
434.493358935117
429.764153425626
152.71391567313
139.783080865061
420.22899861451
395.99970504902
125.711616777098
97.7353404191011
351.457623511804
332.881366721545
82.6723024072108
94.6791931877148
372.358821499414
375.937225861892
87.7637062835816
84.7486357484876
403.112813498982
315.657980624028
70.6680637087932
60.0998490221065
208.48009818506
298.645537425085
70.7168655085343
79.4081073350557
365.446344035284
341.479950540474
80.272161308765
76.0815607551552
321.608469260113
309.972985483432
75.6215430440931
83.0562923309064
313.634595010294
319.534171664738
89.0618920561109
95.3038026569
329.34868333046
335.577824136915
103.449263898759
115.333880790752
338.82730791921
339.780090816402
125.72248443245
134.813736882062
339.132493507913
339.066349658927
141.663707805551
151.245181162746
341.197351507211
344.919530361083
151.167992173127
150.48642372906
344.469257343365
343.889468385791
152.181782921509
149.083743695802
343.49144133392
342.610483464609
146.354736343905
136.566998455338
341.437536624868
342.376616530995
125.653057994027
113.810057556048
342.421521856993
341.159798396628
103.375102000426
99.9503415484651
84.3696620599011
80.5338804618198
75.8562216852337
72.917840711452
63.0059194456711
59.6642642987884
55.5533866038988
53.4014452960027
43.9951099818492
41.9511320238715
38.1358632660566
36.7213185492207
34.0657939216044
32.3792810242359
30.5848055157591
29.2849365161966
27.1757818143466
25.4686101054134
23.5515923031326
21.9147420032156
20.1243615080655
18.3394280261542
16.3061505897319
14.69275260565
10.2754638364616
11.5541005844685
9.23419153534475
5.88437581781573
2.86557468794328
2.03188290245964
1.42539679042443
1.54003688835077
1.62302251379846
2.63608258038488
18.7887619300151
20.7416324527568
3.89630955504738
6.81285644372928
28.9048434743457
37.5529264540197
10.8094937277891
8.29697013315143
36.1597575609041
36.9700435341554
7.00191452166967
6.57052581420214
35.3626709048864
47.4439950391374
10.1390953764655
10.215679518806
45.6470532011211
47.7101408636631
11.9672083767238
11.3663802758301
40.9900525800574
42.1366925703172
12.2096201950726
15.0275871310183
51.2871447886706
67.7534840304035
20.8160053184922
22.7138628152747
77.3093800488068
100.156053326199
144.757315404731
114.962819934837
39.022882375484
45.1536978269244
172.695873723826
223.650233543807
58.5180901483899
69.3129729620784
362.144122645968
552.458559429581
84.7654614565791
139.617997792731
826.140736979625
775.173536863207
141.538067352948
170.555142521408
835.834594354848
1112.78524696006
216.634564372548
295.653812618174
1600.42829449591
2128.27612955795
401.172410789452
436.326119994614
2238.46624753202
2241.677457913
436.853609003289
444.387361471322
2197.27741853633
2125.49489139961
461.60091212935
481.731538986287
2079.38211549872
2109.89297048672
472.136417208167
443.175485840302
2158.71271965647
2193.35699794047
416.840969782182
409.208300350884
2218.24904561145
2224.58243927025
405.778003919774
409.553808651416
2230.07194982738
2232.53991068908
409.070749042999
411.547391164626
2224.84897686861
2240.89557948713
417.545470068495
416.590522828809
2246.63198930313
2274.4261792195
416.943116367433
412.90564674253
2265.1240837017
2244.44799216632
412.897613655517
416.768012669788
2246.82818377511
2248.36324753653
413.813451254323
415.29274014708
2258.70514381163
2245.25469798066
415.423955973664
415.442755056611
2255.70618961771
2259.37648682779
413.754643076581
409.991107585794
2255.17323194221
2247.46990811554
412.147527469527
418.950345706477
2222.02836149009
2187.00966389018
444.568491741601
475.195710017096
2142.35380810097
2115.83000350981
485.296144836901
467.979689158218
2165.44273928742
2238.34052600658
455.294610737239
453.503651666031
2282.21743715363
2273.30173812517
454.199153209419
411.078556992171
2150.16241980161
1606.43460210358
297.59289639096
217.266370123204
1146.66560123764
908.125865920739
168.843194563835
144.379606572526
843.138544540655
524.670089848385
83.0455987382634
76.6759581873136
449.016649910735
401.122927130485
74.541419841689
69.3959759723809
353.911564781004
529.339584250485
101.265577880241
114.15701014963
620.648050887543
726.758238629624
125.557962148899
149.879256604697
765.94356727374
942.69918031453