/*--------------------------------*- C++ -*----------------------------------*\
| =========                 |                                                 |
| \\      /  F ield         | OpenFOAM: The Open Source CFD Toolbox           |
|  \\    /   O peration     | Version:  2312                                  |
|   \\  /    A nd           | Website:  www.openfoam.com                      |
|    \\/     M anipulation  |                                                 |
\*---------------------------------------------------------------------------*/
FoamFile
{
    version     2.0;
    format      ascii;
    arch        "LSB;label=32;scalar=64";
    class       volScalarField;
    location    "800";
    object      k;
}
// * * * * * * * * * * * * * * * * * * * * * * * * * * * * * * * * * * * * * //

dimensions      [0 2 -2 0 0 0 0];

internalField   nonuniform List<scalar> 
207032
(
0.0157620162099019
0.0167962040956329
0.0219875693552505
0.0209311185956883
0.0164764317830733
0.0163987972787583
0.0205332809811148
0.0198798283128457
0.0195110239412564
0.0156667865773322
0.016001990889679
0.0154895242652533
0.0153165145772353
0.0153812290142753
0.0155490602206134
0.0161354642195995
0.0207216632035688
0.0205281470849564
0.0157372027655921
0.015830332271403
0.021865404461035
0.0218089561817076
0.0162940248781276
0.0156320786687684
0.0154430429387938
0.0155157429516229
0.0157281187383845
0.0165272633672323
0.0229435826575188
0.0230975222446516
0.0159825414018424
0.0168294670113328
0.0242156549845276
0.0240204318011642
0.0173596369892772
0.0173439977245236
0.0247594813006629
0.0233478730693908
0.0169339041437838
0.0170335865828092
0.023087004758743
0.0223088112043712
0.0170935843254805
0.0169634608768578
0.0207073631090301
0.0194003776582802
0.0165805814938653
0.0160014085597354
0.0184433369220592
0.017095572867513
0.0154593869474724
0.0151585898599305
0.0163352325789122
0.0157529020271419
0.0153139956459223
0.015025786292077
0.0150622568738542
0.015048757758895
0.0150142007901233
0.0150104718070172
0.0150068886410118
0.0150208950498119
0.0150425462558019
0.0150806368827543
0.0150462565712919
0.0151573851560133
0.0163774710367152
0.0164072615674959
0.0151733412321234
0.0150558117963422
0.0150424519746609
0.0156348909149346
0.0157167450333406
0.0153049614854689
0.0153151788582694
0.0150205611379829
0.0150220948045566
0.0153518073332812
0.0171368321261694
0.0170256878468177
0.0152768092005381
0.0150892796085926
0.0151442256778119
0.0151583582126115
0.0150977706728113
0.0153752081619382
0.0156016246508778
0.0156201882969298
0.0153897300705611
0.0152670390269121
0.0154094266385483
0.0151769872022641
0.0151111800281213
0.0150777381447468
0.0151146450999538
0.0151933348157521
0.0151284917129086
0.0151791856417826
0.0152431664562879
0.0152885206323013
0.0152324088251694
0.0152892841256535
0.0153560066689026
0.0154809086524334
0.015362910515232
0.0156934582725432
0.0159887780104377
0.016355276294953
0.0161067185878838
0.0174190251285211
0.0256702740482507
0.025354142040272
0.0178645039194581
0.0180157765779614
0.025959027803548
0.0252797716321675
0.017577796707251
0.0178956544771174
0.0261742995479371
0.0269918978914744
0.0181228787094951
0.018258989548434
0.0265716065788563
0.0268059739345153
0.0184036314157527
0.0181347382629401
0.0273415524207498
0.0300880305973477
0.0195046826269204
0.0192231296678036
0.0290585846088528
0.0285368540392818
0.0185524508792776
0.0183665600504925
0.0303881803848169
0.0293160596147434
0.0176897249468013
0.0172663699540962
0.0263666257220826
0.0242389312053947
0.0171397127595299
0.0167651461169575
0.0232768554555547
0.0217035865376202
0.0166907631180995
0.0165092771114446
0.0203858239358924
0.0191283185444857
0.016176534653679
0.0164380394578077
0.0202472898605129
0.0181784242504073
0.0158000919298092
0.01549205997543
0.0171666880966233
0.0164045000726231
0.0152255740390845
0.015057672423386
0.0150234747535082
0.0153197462883897
0.0158162713651207
0.015812997421235
0.0152850126198394
0.0150104164287172
0.0150322220383881
0.0150185866095736
0.0150071957530899
0.0150120224865453
0.0150339946185008
0.0150384837684718
0.0151231374069731
0.0150924412456315
0.0151788967893951
0.0163975830772054
0.0164203133606152
0.0151141933419767
0.0150151735567037
0.0150033129187065
0.0152869459565808
0.0158169615083715
0.0159095678867622
0.0153427520086762
0.0150009920809804
0.0150115685892682
0.0150063039842023
0.0150037289552892
0.0150018085929235
0.0150037423023509
0.0150080331460332
0.0150030774180698
0.0150046899938164
0.0150159578182364
0.015010472934576
0.0150040492754542
0.0150026529497725
0.0150036604209496
0.0150007433894563
0.0150004815152196
0.0150011060631511
0.0150024555603362
0.0150057314568301
0.0150025234258302
0.0150068363240363
0.0150179759778763
0.0150589861638418
0.0150297785251452
0.0150142244778945
0.0150235848290873
0.0150649732170958
0.0150468049775506
0.0150709672673028
0.0150885549318262
0.0151206520719839
0.0151056656109881
0.0151421732493962
0.0151758096884553
0.0152163816165411
0.0151816301422621
0.0152268711101262
0.0152625503955432
0.0152782523958484
0.0152419403939134
0.0152986756080507
0.0153511254601091
0.0153704700043552
0.0153171463872334
0.015455809637272
0.0155964830270001
0.0156363608331785
0.0155171404937727
0.0161648617639676
0.0163879470113022
0.0163736651082592
0.0161636862037631
0.0179797571375773
0.0181432195283808
0.0182731037964642
0.0183032312318486
0.018127038415029
0.0181073812781589
0.0192375150169518
0.0306322172210873
0.0315728046409686
0.0194718950147709
0.0196240614011659
0.0350532654053972
0.0332719100796918
0.0194322531762465
0.0186559405508166
0.0320884967873375
0.0304299535531436
0.0185423926016079
0.0166989269925338
0.0160874018938777
0.0159321982075277
0.0158928680483666
0.0158398610972965
0.0159640570973926
0.0159731129972494
0.0162830159564057
0.025661653946653
0.0242208826777208
0.0161990839345533
0.0161532563364672
0.0229097700375511
0.0216679619362703
0.0161314157267181
0.0160857701293926
0.0203387119926374
0.020344305055397
0.0160671995812429
0.0161552856360199
0.0196495927534982
0.0181937215836519
0.0156976057368253
0.0153847217182392
0.0171657377967712
0.0171908859476574
0.0152429197484796
0.0153714501862826
0.0174192927221564
0.0165754971259233
0.0151585785678725
0.0151338762548826
0.0166614206104034
0.0159604078575167
0.0153731550098021
0.01500326037799
0.015009958575902
0.0150066047176721
0.0150029658879126
0.0150016740620959
0.015003682575215
0.0150037730188037
0.01500166298155
0.0150016185217385
0.0150041480517463
0.0150047311811799
0.0150015671670422
0.0150008278258631
0.0150043860299898
0.0150023277314439
0.0150016855102902
0.0149996753873787
0.0149997778011541
0.0149995459229043
0.0149989961575844
0.0150016696979641
0.0150044108532512
0.0150185844629282
0.0150103808181904
0.0150073751334546
0.0150097598433066
0.0150311227391023
0.015022307557813
0.0150568840864696
0.0150749705253087
0.0150947317120748
0.0150809155079524
0.0151134831175945
0.0151235321330388
0.0151130722324043
0.0151020372916634
0.0151351560126631
0.0151452378982534
0.0151560391216398
0.0151407488797445
0.0151752687301957
0.0151892887551472
0.0152078010437278
0.0151929091071276
0.0152438803034644
0.0152787847103981
0.0153001301829937
0.0152657148188404
0.0152858391016727
0.0153200603358955
0.015339873803723
0.0153060070741932
0.0153688548397501
0.0154297639335061
0.0154496580500147
0.0153907714694271
0.0154803910286108
0.0156069340016648
0.0156205616155962
0.0155047231953347
0.0155565811143562
0.0156610770729788
0.0164281274200842
0.0162307841273095
0.0162196994201614
0.016412355776323
0.0165631069764589
0.0163927123920262
0.0182365045143939
0.0181930120837994
0.0186368507196074
0.0187417807975113
0.0208602068416305
0.0200693608235809
0.0356820678087677
0.0379126102287506
0.0429899879224745
0.0392412463829245
0.0201308287793237
0.0214764640093324
0.0189342369996171
0.0193201360806552
0.019326628280155
0.018962207101404
0.0214012107033912
0.0202315106089541
0.0419566298135381
0.0458013552491968
0.044056994281008
0.0208661504047099
0.0201152876722553
0.0417054345600578
0.0432985774970366
0.0201314181290446
0.0202120925135733
0.0436450891050044
0.0390571096850176
0.0202230067304181
0.020230715463607
0.0398096146726327
0.0364007928700501
0.0202202349909109
0.0193900009751737
0.0360060631266178
0.0339094063315978
0.019033896749875
0.0197341273160751
0.0340829531828891
0.0339249546162065
0.0195493487050449
0.0179946602405025
0.0298304014391806
0.0272775908489913
0.0172360335032973
0.0168621849782245
0.0250488119056155
0.0244713104581825
0.0166558285129374
0.0166296108015747
0.0228751523129862
0.0214100549997171
0.016594232233893
0.0165768235949395
0.0214819877206953
0.0223921973327672
0.0164452400937318
0.0163366272541412
0.0205617724692177
0.0220309588931403
0.016344992608259
0.0161345035101343
0.0215267169642414
0.0228202167409806
0.0161542794473761
0.016179368366991
0.0243329945797012
0.0260461786850951
0.0162370349530795
0.0163102820058962
0.028019004091306
0.0270684401273444
0.0166809111451933
0.0178633172763154
0.0286575645322039
0.0252426456232662
0.0162155728188489
0.0161012277000104
0.0226497777974061
0.0202099465808351
0.0160350434109667
0.0156185122247523
0.0185569715903761
0.0186634450868647
0.0154507317564
0.015333322436823
0.0175281732633447
0.0173192950070954
0.0151288268252635
0.0150602118539706
0.0165549536099569
0.0159013146884667
0.0153407317702409
0.015001632094146
0.0150071285786784
0.0150113520320639
0.0150025743221579
0.0153398150387207
0.0158978754878053
0.0165496898118801
0.015068096808521
0.0151451777366458
0.0166561671059984
0.0159570561784697
0.015370487054933
0.0150047513919215
0.0150090366641177
0.0150087955651316
0.0150033764267745
0.0150028044284384
0.0150062444635202
0.0150048505589047
0.0150018123489823
0.0150015746648986
0.0150051403145212
0.0150066358028023
0.0150016992835365
0.0150014137748615
0.0150115583636927
0.0150434236111308
0.0150089145276085
0.0150050066372937
0.0150021627933424
0.0150179775369671
0.0150368778580289
0.0150769406404128
0.0150454101821168
0.0151035892884394
0.0151684130217357
0.0150695132827706
0.0150395291491029
0.0150895658333413
0.0151295374156568
0.0151549900461489
0.0151197631262057
0.0151598621250808
0.0151945797221096
0.015131746900043
0.0151184918373939
0.0151538054400486
0.0151664806183794
0.0151557398408447
0.0151467523491565
0.0151777327673944
0.0151867745115108
0.015177900441174
0.0151690432383658
0.0151849792842705
0.0151947106417046
0.015205554316644
0.0151912249992452
0.0152099600092007
0.0152239130650971
0.0152266372491988
0.0152122481751078
0.015231248525434
0.0152456184859329
0.0152651622016045
0.015250717745647
0.0152700621373421
0.0152850003087434
0.0153585281117823
0.0153253964694766
0.015342391065091
0.0153745606712529
0.0154656978056237
0.0154104249064962
0.0154293248077745
0.0154816985852419
0.0156337245516494
0.0155274927970891
0.0156117837156571
0.0156890185057739
0.0164851793031939
0.0163112188538973
0.0165174480065555
0.0166323462991871
0.0172267345014867
0.0170552445717443
0.0171283808161585
0.0172849285688866
0.0189548439807788
0.0186450231382104
0.0186043144194324
0.0187523564401674
0.0200818123313758
0.0439896414783738
0.0468714422106477
0.020701197775634
0.0207169269326981
0.051059821623771
0.0476690720133763
0.0201144925559732
0.0200421745006064
0.0490352915280325
0.0454002017786948
0.0200507896275397
0.0202225747127149
0.0422016689210112
0.0437526448766803
0.020273881381267
0.0198574221546119
0.0394794551832112
0.0364870337196694
0.0197755432595794
0.0197415483354291
0.0356889413006315
0.0337519075677031
0.0195226566509933
0.0192452250607947
0.0310782000050207
0.0283920449730682
0.0175932456727978
0.0167845115645735
0.0263123109020384
0.0265492603886401
0.016716775321994
0.0166516193383074
0.0247121320540406
0.0230706748480468
0.0166094570720754
0.016474052747661
0.0242600132500971
0.0235885380114494
0.0163626302432202
0.0163977038734194
0.0254280367380206
0.0276016497843471
0.0164573812309465
0.016536667086412
0.0301317658892472
0.0330490142739927
0.0166853039927257
0.0168584898116041
0.0305192234438706
0.0290363645478513
0.0175854222956911
0.0182623225747459
0.0300074144710444
0.031862538808873
0.018348776467941
0.018220199780179
0.030585022226618
0.0296787986571709
0.0172601727807421
0.0167334254353279
0.0260610772290362
0.0237847020640874
0.0159073275096998
0.0157695329413598
0.0217792236684286
0.0200771348731587
0.0155971014045576
0.0153856307894175
0.0193184314244865
0.0182307012655215
0.0152166124297553
0.0152755673200069
0.0182184526707704
0.0173128947359215
0.0151358404633894
0.0153548821138746
0.0175183827698913
0.0174084631469211
0.0154458976208337
0.0152672025020042
0.0171650522059734
0.017148347262279
0.0153698470284714
0.0151671318350304
0.0163892699765185
0.0158087679103402
0.0152825180548424
0.0150062330932609
0.0150261524411393
0.015013565569266
0.0150039516380805
0.0150085844095177
0.0150306878545925
0.0150513309264522
0.0158154712640485
0.0153167900382508
0.015017074108698
0.0150270910334971
0.0153126238814602
0.0157543226623987
0.0150625452786439
0.0152643806492366
0.0163401248513958
0.0164223359539629
0.0152513129560288
0.0151625959276767
0.0163711082670146
0.0170316943433001
0.0172044766527748
0.0155180315104313
0.0153561043022285
0.0156534681062872
0.0157846357182343
0.0184722833087814
0.0180769678880255
0.0186945319403068
0.0191391740859262
0.0158669594876832
0.0156499891788685
0.0153997915952862
0.0156101860669032
0.0155899699085598
0.0153856707144187
0.015114816081018
0.0151847412136246
0.0152091170772477
0.0151315989165529
0.0152781456759563
0.0154129996678874
0.0154868699488434
0.0153281998759926
0.0154032707687213
0.0155646470780387
0.0152709080640712
0.0152112564013224
0.0152837648958041
0.0153384442850435
0.0152383892008048
0.0152034696440364
0.0152512259675502
0.0152816308165454
0.0151981639485837
0.0151854463012513
0.0152340651924385
0.0152438698753307
0.0152210373975926
0.0152130643384484
0.0151823925036511
0.0151926346402475
0.0152138019503134
0.0152056476639025
0.0152036797870164
0.01521309677847
0.015232243333501
0.0152228717526674
0.0152290827825877
0.0152429517771909
0.0152625817651929
0.0152486847283108
0.0152681547997182
0.0152825418446453
0.015302425240014
0.0152860895398384
0.0152877689719987
0.0153046149603611
0.015325172232076
0.0153060357338478
0.0153593278800574
0.0153909930366817
0.0153973828786945
0.0153693907376738
0.0153830789997007
0.0154089424419771
0.0154906900082936
0.0154478781997565
0.015456949012073
0.0155007399604203
0.0156361129939512
0.0155488791838015
0.015563199969462
0.0156534874050058
0.0157044035994678
0.0156341155373534
0.0156524194709108
0.0157093304619263
0.0157123226066555
0.0157265859260549
0.0156214697510762
0.0156929314003266
0.01569122317218
0.0156176844875733
0.0155405175379209
0.0156378024922236
0.015629281353137
0.0155343491651127
0.0154406155777598
0.0154877305675187
0.0154828663829325
0.0154365445046992
0.0154903730282461
0.0155238410955794
0.0155321459690573
0.0155344488299319
0.0155341210707097
0.0155080375670095
0.0155064555810485
0.0155023291378335
0.015500239192974
0.0155147561665544
0.0155138046175327
0.015537389259819
0.0154442267801549
0.0154340403038108
0.0154310148636696
0.0154347927152935
0.015445276833465
0.0154395672355487
0.0163868185380318
0.0238995404681767
0.0221396434924671
0.0156830211297033
0.0154975663479293
0.0206345098778776
0.0207471474487457
0.0156430225369308
0.0155442230445167
0.0193269867636983
0.0200144183414332
0.0159657891622547
0.0155527928235352
0.0186347772809246
0.0185944801848465
0.0157184977637393
0.0155002486980704
0.0181357283629188
0.0181578590245831
0.0156529476514065
0.0157792302673758
0.018224261346171
0.0186383787508287
0.0159817097950854
0.0166027784069806
0.0196438411220239
0.0203497755798913
0.0166705131707961
0.0164667416564162
0.0207286367036
0.0211440622841685
0.0166177573017707
0.0162576425553583
0.015860946290271
0.0205254432316814
0.0209129001669938
0.0200664423429578
0.0159746279016953
0.015691308549318
0.0195987692319544
0.0220660241664824
0.0217251609669346
0.0162691713378252
0.0166415182491806
0.0157282203247874
0.0155228404984662
0.0157858798029702
0.016024835438844
0.015442708088968
0.0153847943585011
0.0154138077764242
0.0154700724074277
0.0153064676668348
0.0152754363860779
0.0152672744424248
0.015298630204373
0.0153063217823241
0.0152781344054676
0.0152998799325808
0.0153280323921431
0.0152648449941707
0.0152517061592256
0.0152522996986671
0.0152631019129536
0.0152398051960409
0.0152306609743808
0.0152299477639495
0.0152393523749938
0.0152328612913946
0.0152247936106472
0.0152450518253966
0.0152531383974387
0.0152521717198738
0.0152427761978368
0.0152627273455268
0.015272854487755
0.0152940773281162
0.0152812812389954
0.0153007222205465
0.0153166121579035
0.0153233850197509
0.0153047071129772
0.0153146367854193
0.0153306277257996
0.0153422864670579
0.015327994411483
0.015329041440327
0.0153436581336477
0.0153434952721677
0.015328715532939
0.0153767994169719
0.0154019764222473
0.015411211905739
0.0153879737071828
0.0153972882912127
0.0154216453712034
0.0154998141721447
0.0154602433452086
0.0154736777189808
0.0155148796437977
0.0156449796598868
0.015564560590998
0.0155849957896217
0.0156709340790518
0.0157216958659889
0.0156523670270925
0.0157108283627783
0.0157525933810628
0.0161208869006556
0.0161114043028217
0.0161416493387366
0.0161447084283318
0.0166775604467658
0.0165750645954851
0.0166327752045707
0.0167230461103041
0.0173296779843525
0.0171867777122141
0.0172594121106965
0.0173917363973043
0.0187329390901669
0.0186210770743943
0.0186693153886092
0.0187755143882517
0.0201908908072905
0.052022099772872
0.0561571053765907
0.020779418547103
0.0208705393757001
0.0624193339023675
0.0572913028559447
0.0202924130815345
0.0201493917881676
0.0595130247270235
0.0537583926046785
0.0200816278444136
0.0203891582090619
0.0517287225447163
0.0538520666020652
0.0203916192101481
0.0203291364093511
0.0485295574634443
0.0429976899870422
0.0207336836030552
0.0212013813144315
0.0399319791438957
0.037453261889323
0.0199604448851991
0.017868900365045
0.0171142659835989
0.0166426638230569
0.0164920256707804
0.0188220782860091
0.0311234324983158
0.0286199268887252
0.0172800183987113
0.0166907072324722
0.0315021973363261
0.0287383179960276
0.0165585429094601
0.0165104651547314
0.0263232873152758
0.0163301091949759
0.0159515041184345
0.0159799958824963
0.0155575923895064
0.0156346569869958
0.0161640015432486
0.0165873958843635
0.017986161940816
0.031519557335287
0.0340322851259914
0.018634975028678
0.0191125710663163
0.0340928595143418
0.0278727179022276
0.0173855120679337
0.0168156321653458
0.0268325932528809
0.0273970559614029
0.0174641117629613
0.0165746860816588
0.0240840548240949
0.0223576079345295
0.015859603356013
0.0163794441934111
0.0248060626731701
0.0222817365331713
0.0161507766705344
0.0165961477244441
0.0216641877046156
0.0228864122056718
0.0166509643684386
0.0166009451874763
0.0214025319734535
0.020475950695675
0.0160077543382436
0.015984160614509
0.020254067002707
0.0195976635786688
0.0160682041363289
0.0163969621241376
0.0203907805948157
0.0193598369924995
0.0161813270637592
0.0165902574823219
0.0206893655187111
0.0210648519425836
0.0171366838459597
0.0171629181729022
0.0217430505814384
0.0223147465933253
0.01709602291384
0.0173736404867361
0.0237422906660559
0.0233045872356809
0.0228576169985086
0.0165350449421467
0.016934559171656
0.0174034049136896
0.0170961185576394
0.0243436113818104
0.0246527224854156
0.0250835063637826
0.0177030806154503
0.0179445626132137
0.0268326967248556
0.026392278152027
0.0264455856817602
0.0178755334995365
0.0180499796392666
0.0174780933405267
0.0171391108463816
0.0169782107034652
0.0173772782558967
0.0160694231823718
0.0158478879172839
0.0158468784439729
0.0160662812592391
0.0154996215954378
0.0154325425900921
0.0154683399989126
0.0155344213880742
0.0155013184279013
0.0154475647230507
0.0152979987139601
0.015328310858489
0.0153512569199628
0.0153212189096951
0.0153447497101534
0.0153749384474682
0.0153500743154559
0.0153224059371499
0.0152733298897117
0.015286270532393
0.0152842241934721
0.0152736438592511
0.0152514249818251
0.0152604799637539
0.0152598318488408
0.0152505224074662
0.0152711289057261
0.0152813067271818
0.0152743839511655
0.0152654788776144
0.0152846033554508
0.0152964871856276
0.0153201065233849
0.0153047632820213
0.0153155123607342
0.0153283265396546
0.0153410572552928
0.015329965034855
0.0153257695760536
0.0153372058201009
0.0153365718845856
0.0153248961175756
0.0153281643289495
0.0153421088335908
0.0153551177526704
0.015342108768793
0.0153419503448346
0.0153554187039145
0.0153564076642391
0.0153426710639228
0.0153423132182783
0.0153562285535871
0.0153691133064285
0.0153551519615698
0.0153980912385843
0.0154206931704774
0.0154342120768269
0.015409982367011
0.0154707287676828
0.0155092422039516
0.0155288419348469
0.015487940916283
0.015576760116441
0.015654655037988
0.0156882173771926
0.0156025299625673
0.0156692799881952
0.0157399426615429
0.0157733459392751
0.015731654487811
0.0157522712075444
0.0157942733190183
0.0163161001006982
0.0163080838585516
0.0163156172565768
0.0163158936116703
0.0164133844990351
0.0164192522071572
0.0164167856464367
0.0164008399933786
0.0167716365094349
0.0166939562028119
0.0167585052120087
0.016824300518
0.0174745431568363
0.0173440955963786
0.0174371088715242
0.0175671837820551
0.0188389043915515
0.0187367596630958
0.0188181612901377
0.0189141820393141
0.0204095457523547
0.0635157389240006
0.0698417892526049
0.0209782633141551
0.0211034559894338
0.0205431461070242
0.0709502487851752
0.0788699468622448
0.089789594056695
0.0212445790001635
0.0206926547007101
0.079761151693713
0.0835880400217074
0.0204480160476964
0.0203293025465157
0.0742625472744099
0.0663057698935446
0.020230775571223
0.0209806957460968
0.0658331827117992
0.0659304233914635
0.0205550748260104
0.0204608554344206
0.0594852511015569
0.0547277299939046
0.023142300794686
0.0227151872023704
0.0482957096152025
0.0433136533316299
0.0231259203166293
0.022035961861912
0.038714783237094
0.0355043481546107
0.0213213601015891
0.0204250612197821
0.0350336801533041
0.0387865584875221
0.0188704132028999
0.0179144241416194
0.034660253127725
0.016613068203064
0.0162143670508502
0.0163420949377602
0.0158348141986512
0.0158061144281327
0.0158933308339636
0.0155142314637915
0.0158209524795987
0.0162832754530344
0.0175977124064231
0.0280175644553404
0.0287373343666338
0.0179940902738275
0.018086852965652
0.0289989392222008
0.0329991433780375
0.0192171483503411
0.0182714259860191
0.0305493137023959
0.0291725457056905
0.0181091959431275
0.0177366856806526
0.0278244311463845
0.0268578960108246
0.017132340824219
0.0169708603970814
0.0315326603073986
0.0288533216887883
0.0168414665511496
0.0167425532024876
0.0265994391276763
0.0245656771001461
0.0166665119124639
0.0166193829059654
0.0242846443333361
0.0231324695660322
0.0161119843270901
0.0163597783814169
0.0235179309301972
0.0220541491871738
0.0162952495466767
0.0162567801052291
0.0205175968548631
0.0224504304534753
0.016368338188477
0.0165716903144751
0.0216678252294711
0.0216938609559737
0.0166396364482509
0.0169860948351935
0.0223445875041466
0.0232924392710701
0.0178220097611664
0.0179055915911055
0.0236715897490344
0.0245698180081313
0.0177363260335716
0.0180979625982539
0.0247408368199184
0.0268699617729748
0.0181945019312474
0.0182193415996386
0.0286168796160862
0.0281490947175859
0.0179576756418024
0.018048627695444
0.0178281974347897
0.0277785140545777
0.0274475651016789
0.028672407780966
0.0294654232524512
0.0178512828926583
0.0180825983499699
0.0172904175028067
0.0170007560202682
0.0160034647222863
0.0162277074877448
0.0161792690636603
0.0159779627122384
0.0155039738570888
0.0155701610696208
0.0155294365777621
0.0154771549007589
0.0155043672507429
0.0155555127994859
0.0155783258283436
0.0155287717714856
0.015368010847295
0.0153984759274829
0.0153713627076819
0.0153439068741138
0.0152950584901216
0.0153087174910542
0.0153063424523899
0.0152950236863556
0.0152723038980035
0.0152822004130936
0.015305008294648
0.0152920492632917
0.0152905067123589
0.0153036504554215
0.015327763173156
0.0153110917119867
0.0153222708966971
0.0153363146427079
0.0153498153697363
0.015337607454527
0.0153309873491176
0.0153418846938539
0.0153570732684675
0.0153467573633488
0.0153451557924505
0.0153557419205659
0.0153513111923681
0.0153405848117938
0.0153393652425657
0.0153504048304282
0.0153645408528957
0.0153533468704904
0.0153554462677167
0.015368413949454
0.0153687248791395
0.0153552014068004
0.0153555906237337
0.0153693754818187
0.0153824474989478
0.0153682443018745
0.01536769894245
0.0153820683208768
0.015430338913799
0.015407922677459
0.0154220040122573
0.0154465593240553
0.0155188039699444
0.0154806306975938
0.0155011565710675
0.0155424756978337
0.015664723622087
0.0155878450732574
0.0156185645086932
0.0157051111314259
0.0157583221786943
0.0156858495056697
0.0157024487503683
0.0157766625259077
0.0158144907163046
0.0157716498980562
0.01579105866126
0.0158348997729255
0.0158547452337989
0.0158097991593234
0.0158289104782036
0.015875011492794
0.0164792711090289
0.0165022090036895
0.0164972306212273
0.0164641806602816
0.0165378536538221
0.0165764119401031
0.0165689652302288
0.0165218043894057
0.0168801155368597
0.0168238944333423
0.016884002145781
0.016937477798896
0.0176654585245383
0.017536487608983
0.0176394841055129
0.0177690724110277
0.0190002915289856
0.0189117523859683
0.0190153560152339
0.0190972218806599
0.0192036129803796
0.0191265192626666
0.0214023798295312
0.103146504268675
0.090276783778086
0.0208576988703802
0.0205826814337117
0.0945468381305735
0.0999001774670057
0.0212620864914869
0.0209562773938576
0.0959758892669111
0.0836533316656667
0.0207779064124116
0.0206605071782958
0.0738126939509377
0.0706124486487175
0.0228034441426433
0.0229595863892029
0.0622346493880837
0.0632788926163061
0.0243355725198405
0.0245014361688421
0.0541987659855756
0.0490531356163162
0.024563232818245
0.0245930542500223
0.0461359122917209
0.0552475772946721
0.0245153401670533
0.0234291223075816
0.0225902252105898
0.0232082092946564
0.0429506427579855
0.0416219233837379
0.0231462327810081
0.0231054381732996
0.0416038859477235
0.038487479492888
0.0223460592751012
0.0221428181557737
0.0374677492175709
0.0410534094757975
0.0222174826313002
0.0206199726010187
0.0406314379951973
0.0440463149110825
0.0190513447337273
0.017145944457557
0.0397787138899159
0.0362375959027154
0.0168943668945147
0.0169993615858959
0.0335401009910555
0.033679221227536
0.0180168614381908
0.0180358040826148
0.0372598634607336
0.0345700829520938
0.018403838410884
0.0185540968494005
0.0378974915212218
0.0416542080671424
0.0186958320441941
0.0187517780695388
0.0375441192480002
0.0419191183068887
0.0214794802295612
0.0208024221858921
0.0373739866910116
0.0364866177308557
0.0198532930493965
0.0186903933797036
0.0329177252588495
0.0308742480797315
0.0182622975424787
0.0179739126162583
0.0296581682784005
0.0304369728979851
0.0182422193865274
0.0182491971841911
0.0310687678644896
0.0362093669575171
0.0193905878996592
0.0214430337186918
0.0417358767875917
0.0360065682728096
0.0205180487503131
0.0192008925019055
0.0326712292560521
0.0298114344531896
0.0187608750114636
0.0182759358823442
0.0316245638068737
0.0377644148935105
0.0173231903684205
0.0171507817174051
0.0343576557492977
0.0339519694745426
0.0171280941423706
0.016756383013471
0.0302618277476482
0.0316042196716295
0.0170742513659381
0.0168291868170977
0.0292694502775952
0.0271218378650719
0.0166233587005431
0.0164672058350713
0.0251906684456659
0.0261410177707319
0.0165625573413921
0.0167830525682293
0.024736151516595
0.0247247646435242
0.0168552045813158
0.0172441685405363
0.0260263763287347
0.0294233596750118
0.0179689414033243
0.0181247143066466
0.0294982258910846
0.0308347990837539
0.0182888413318726
0.0179765713502057
0.0297113597897547
0.0313114116874601
0.0180400250859164
0.0181613715732529
0.0179230328354168
0.0312415788560877
0.0300251940050009
0.031505635627276
0.0332488015334548
0.0180496844447546
0.018291125026842
0.017470972119613
0.0171727976794595
0.0161605799056034
0.0163913048685511
0.0162673980896728
0.0160764473146631
0.0155738707028407
0.0156392457335148
0.0156684139381516
0.0156046671651472
0.0155492840946894
0.0155965337163391
0.0154208475291042
0.0153893435295589
0.0153635918638149
0.0153916439599274
0.0153321021774692
0.0153156386530634
0.0153152494368994
0.0153295442338419
0.0153552040166246
0.0153371201809509
0.0153132952423631
0.0153300117598124
0.0153390020783503
0.0153250752170104
0.0153414030071382
0.0153532454293858
0.0153499307951983
0.0153380651351311
0.0153548616667357
0.0153660901563983
0.0153658821284374
0.0153540561498076
0.0153707549175668
0.0153830594116498
0.0153730577006834
0.0153624972118014
0.0153601244105352
0.0153709781239792
0.0153658478230809
0.015355014612452
0.0153694611939742
0.0153807818390695
0.0153789230657332
0.0153671995561419
0.0153685786126399
0.015381914241586
0.0153821272598982
0.0153681537082402
0.0153814328871751
0.0153957962426474
0.0153957599366949
0.0153811614916778
0.015380485940505
0.0153952368408738
0.0154403326100048
0.0154180765250802
0.015434083963421
0.0154589279405084
0.0155287296989
0.0154908259912861
0.0155144048581991
0.0155561180537399
0.0156753189264776
0.0155992939109918
0.0156346412536902
0.0157218768224445
0.0157384406347597
0.0156506771669265
0.0157190180296088
0.0157949572318445
0.015813213338732
0.015735577910864
0.015752178920634
0.0158314520866705
0.0158496699165206
0.0157688359385577
0.01584761458448
0.0158948751197294
0.0159152751980319
0.0158668659778676
0.0158857887317824
0.0159353041435976
0.0159558819228374
0.0159052965301064
0.0166446703370811
0.0165924477148398
0.0165744484199768
0.016634664719379
0.0167064004784404
0.0166424444072038
0.0166219385751044
0.0166937358505751
0.0169390763961616
0.0169950459505506
0.017051471324467
0.0169895291973364
0.0177430144322493
0.0178759920917113
0.0179834221837465
0.0178436379953365
0.0179363140772336
0.0180874895532395
0.019316743266924
0.0192424961980101