/*--------------------------------*- C++ -*----------------------------------*\
| =========                 |                                                 |
| \\      /  F ield         | OpenFOAM: The Open Source CFD Toolbox           |
|  \\    /   O peration     | Version:  2312                                  |
|   \\  /    A nd           | Website:  www.openfoam.com                      |
|    \\/     M anipulation  |                                                 |
\*---------------------------------------------------------------------------*/
FoamFile
{
    version     2.0;
    format      ascii;
    arch        "LSB;label=32;scalar=64";
    class       volScalarField;
    location    "800";
    object      omega;
}
// * * * * * * * * * * * * * * * * * * * * * * * * * * * * * * * * * * * * * //

dimensions      [0 0 -1 0 0 0 0];

internalField   nonuniform List<scalar> 
207032
(
3.36627796409557
8.27085791180247
28.5220413888256
25.806562921132
7.03456958656932
6.834785358025
25.4349745019002
24.1323510219658
26.6476984652843
4.51403929703584
5.11775816395896
2.58179139992857
2.1702425180981
2.2903253331165
2.69052996957081
5.54718876434105
25.4553621686135
28.3487226258964
4.68702542803862
4.87133968425812
30.1646469841832
27.1632329316653
6.09235551643394
2.90701885900003
2.41275826132326
2.59160533328358
3.15792576632509
6.82498512252558
29.152659437759
31.9070944152019
5.38629155830341
8.56130227601564
37.0414670526495
34.5728843657688
9.77730291151116
10.0646658950747
35.8782692445682
31.6733904220084
8.76571975842597
9.62963754671812
35.4637980067393
34.2074440473803
10.0517436787289
9.64869836443235
30.4639930199926
25.198195645645
8.08178429904467
5.33447258550144
19.2693567958103
15.3436591763614
2.89279950981699
1.5186070608925
13.738641274191
14.0712771496867
14.385030686706
1.07608895892651
1.09084339721391
1.02279593682044
1.00357694436407
1.00224748085865
1.00113869356175
1.00461482923203
1.01644607804877
1.03082239046296
1.01219530040024
1.73826872338799
17.5347413848434
15.3108505329365
1.67929134108954
1.06975373932105
1.04183414725967
16.6687281275403
14.8780125038421
15.0809171324733
16.5571683406322
1.03051868390314
1.03791118532353
2.44198836658312
16.674354206619
19.3501267067585
2.38538777929324
1.16064986260849
1.20588593612907
1.21191493819563
1.16345066480455
2.93311937261925
3.54368928287091
3.54389389850247
2.94132392437946
2.09337612708531
2.34756492592585
1.21881973340713
1.16796268229729
1.06017578116287
1.08353552208839
1.31754887246631
1.18731792768906
1.27984803991358
1.4000464956004
1.44416882348453
1.37060787052685
1.48161931930366
1.58045147333679
1.91392362525532
1.63383644565889
3.17564393408568
4.02898963621056
5.44075299329003
4.81601322194633
11.0841091063827
47.6657058280753
45.6291752582727
12.0513452895916
12.6607957166994
45.3009672835697
40.9947279515886
10.9383593315216
12.0881969750085
43.6691125584981
50.3857784534858
13.0345769638423
13.6830683208921
50.6535453462251
56.756698542832
14.642152061967
14.6880838762424
62.2504891172864
82.6844029112467
22.4024372858659
18.8699892591229
70.3251469568203
58.3657830528389
14.8733654802591
13.8047489184728
52.6310729172304
43.3357263833975
11.5383476662583
10.4222957592688
39.1429298077507
36.6859962267906
10.1167044838237
8.09231283665598
30.7339848703495
28.8063135279473
7.87219361949059
7.32133801362604
26.674326890447
22.8752511804618
5.95892281688673
7.55197676427223
24.9937472280867
18.2468079018308
4.85813631136044
3.35677564659704
14.9408949358871
13.0727956982967
1.9676228851531
1.03819623433595
1.01055114982734
13.8826513952041
13.1540364725011
11.9403491165087
12.0348993946784
1.00269399935223
1.00926909961571
1.00318861905206
1.00106543249276
1.00255055186205
1.00907508143891
1.01100357663992
1.32778310300672
1.4077517465747
2.08352279427996
12.6802554747703
12.5438238713064
1.75960219190792
1.00575748128336
1.00167201100105
11.8498111872694
11.8081079306039
13.2079069077272
13.9064489504652
1.00443883523609
1.01019166435946
1.00066137738719
1.00040885774234
1.00011546491996
1.00023840803435
1.00081580427484
1.00027148382105
1.00054187309861
1.00303329958897
1.00117876599087
1.00027416214192
1.00023573762892
1.00037482902741
1.00000263083416
0.999985277653606
0.999952095524622
1.00007194272443
1.00031141336964
0.999979507446548
1.00053459827923
1.00276513888206
1.04113015670892
1.0198437266816
1.00251600944876
1.0052455487361
1.02127928247921
1.01454047591542
1.02595660647422
1.03549882662939
1.05549133053364
1.04607428581967
1.10936785116369
1.14444160698039
1.18463920676389
1.14817632642344
1.21227202944459
1.25347870665628
1.26535080848946
1.22263654200496
1.37275084366823
1.45950915535467
1.48005222131792
1.39066691210122
1.85815979247507
2.2313891843331
2.31724661524739
2.03599028377241
4.89663914558022
5.4558266198556
5.41840459080499
4.88606621277588
13.800021266959
13.4326875269656
14.0471998246329
15.5645946056514
14.5332999521217
13.1716990133794
18.8556845608351
79.4377793369316
96.1672993474333
22.1071107839795
22.7087497561222
99.0604048960209
83.4199168533978
19.6359609089165
15.1447055186536
68.1676518156819
65.304162964321
14.7200432970073
6.54724891901891
4.02027280099704
3.28052935227859
3.751035095122
3.58382769411324
5.08965828948763
5.05218544220547
6.73761652626457
32.6432368057986
32.1800957462405
6.70309324668398
6.66372646353241
32.3679153924533
33.0280985719661
6.82299809951605
6.77940042824503
32.3429801280017
31.9360983339895
6.69481425415967
7.25067179759719
26.4657203041959
19.2185781617161
4.8410112291148
3.30583942727006
15.2447402906087
14.813210450248
2.54369465240163
3.52962572250764
15.7617812825949
13.4309529262244
2.17776436333939
2.02056696022765
13.7560688454706
13.9444167095239
14.9598405079868
1.00388374737626
1.01157002043189
1.00083432146209
1.00025823282041
1.00009255120828
1.00021680863492
1.00018027472124
1.00009262743617
1.00009098182108
1.00022706097009
1.00034710946657
1.00008092304274
1.0000077247921
1.00030992675178
1.00009635392781
1.00003271871405
0.99994239610255
0.999941848014204
0.999937292807485
0.999918738540233
1.00008816660902
1.0004023656492
1.00360774664793
1.00134369233585
1.00060673676146
1.0009557679741
1.00865390170581
1.0049492636797
1.01971425464158
1.02873214178418
1.03844471066101
1.0290234646737
1.04792738072488
1.05464307039638
1.04676622495737
1.04091584141607
1.06535061604656
1.07181537936362
1.08225317713
1.07155213096169
1.10408681505097
1.11619901400959
1.13759247942933
1.12284906891742
1.22879314930533
1.27045033451788
1.29892099135064
1.25701894077843
1.28383412143881
1.32651095757395
1.35783291200149
1.31485039062393
1.52340942153221
1.63844766458359
1.66403388123335
1.55300857099501
1.88905598423893
2.20693250863895
2.20175893395438
1.92171869072329
2.11952630849323
2.34629128041957
5.47796134867528
4.99229577318736
4.96096028711001
5.44023338696931
5.89510999867757
5.56604636000706
14.9413733495507
13.3730314368391
15.3087583934727
17.2746486167766
28.6666223858377
22.3281356795581
93.6223225158121
113.25756887117
137.093255821758
105.48136858555
22.2099690104198
31.2987799159036
18.0812017789922
18.4207274181767
18.4341546692662
18.1371664884147
30.7278042316856
22.6670784459257
111.624526202924
143.45787974899
121.124425421306
27.6991899154481
22.0337790631449
106.353353738094
96.0504651601897
21.6258542688672
22.004544088861
97.0536243611041
94.0327043903901
20.5585843539374
20.6703221474997
91.2614310826353
87.0503569395769
20.6577076447159
17.5941283905844
84.4970867591908
77.1030165904472
16.5284894531294
18.2658758011542
65.392531350846
54.6508244674609
16.6774569041391
11.1564906925643
39.7629634634896
34.9482651881476
9.31640850291189
8.3521262252495
32.3669829349507
30.2550204223108
8.26491052677699
8.25415833618082
29.1213439302622
27.4230889710872
8.13470812108472
8.130222389383
31.4657912398794
40.5448782078437
8.69537933907634
8.36962474126013
37.4932439160918
40.9017084628706
8.34626271377996
6.83198073877514
36.6659597295358
36.0412094680418
6.78349353666623
6.77711819897819
35.8801629445736
36.4696724388069
6.8120030287228
6.89247595332756
37.5488435199821
34.3164010102292
7.62778548941166
9.92811343437672
33.4947249146272
28.0937241549909
6.47342384572487
6.3416316517902
27.2414774810342
23.32473597056
6.29362930443443
4.77237466554693
18.8791725829319
17.6166167658778
3.72841279026494
3.22606876636289
15.648555999342
13.4120562025341
1.77133410451827
1.41440530948182
12.500616335362
12.8236218095976
13.6192669118493
1.00347005515077
1.00924141290243
1.00797489587373
1.00297223055394
13.6044794687668
12.8124972096943
12.4972941517811
1.42104407428649
2.02119592358769
13.7715745363072
13.9329140897491
14.9140124263864
1.0033902769166
1.01192047060146
1.00125191820763
1.00031812015753
1.00022781198808
1.00053685222712
1.00029993883238
1.00010978014703
1.00008617372341
1.0003380869257
1.00060401220893
1.00009448029971
1.00006962339752
1.00212543635064
1.01790255748828
1.00177061585825
1.00074953739645
1.00018453755424
1.00429589104153
1.01465143091561
1.03657790642246
1.01301897028349
1.2917183368434
1.37532519663553
1.07450960295355
1.04165798933909
1.09480947411467
1.13572538531711
1.1653069603336
1.12099174744185
1.16232094709045
1.20811129327435
1.07014082733104
1.05896327833262
1.08872400857062
1.10052927583548
1.08155182900241
1.07379832568405
1.10680871629284
1.11633221776917
1.10616754140041
1.09847433530034
1.11579336141798
1.12629354326217
1.13684102799607
1.12260002068081
1.14771812156652
1.16249158105831
1.16260055447602
1.14766821160275
1.17564895711223
1.19159776084311
1.22620639278606
1.20898331000151
1.2471407597946
1.26761220718905
1.39308843237863
1.3498338362459
1.38347993137986
1.43212641512188
1.68892724834533
1.58432746589851
1.61969913832222
1.71918769178819
2.20585334449124
1.95909026560171
2.27231892264106
2.39705184106171
5.53736570400666
5.13579090170282
5.81896888968375
5.93193173531584
8.6497036037191
8.52733521908509
8.5992009725303
8.63657744406756
16.4817689139474
16.2421154493406
15.7155375974752
15.2273260947327
21.5709425175193
98.308137410398
110.434279492282
26.4299597062719
26.1786589985147
112.891620322538
98.3566904804411
21.4256702510892
20.416358654145
93.2647850608582
92.1434804914178
20.7256649529021
20.4148143834217
94.7371345755643
94.1490584954888
20.6712983663012
17.4707363560709
73.9842529242207
71.81377315472
17.3343196246584
17.121701094775
58.7262582197509
50.1922369256314
15.0262548188966
14.3034722988586
44.1344396353236
34.9122560520402
10.2545368284247
8.48542992016883
31.5335149767898
33.8498075312274
8.25351157027198
8.18315715135293
33.0289499828135
32.393946406645
8.15763248421212
8.67132505623494
41.2779696623959
40.9342954952586
8.33380520687333
8.34441063578116
41.0485612932977
41.9804054993021
8.38724080807216
8.46399533447085
43.5360186801038
45.4929304343178
8.68487531888295
8.10066084915107
40.4505400559464
40.415962384469
9.79293315165965
11.4740298473916
47.7747072250531
50.5827468049735
11.5685532374895
10.6770889352187
39.6697667678451
29.8996679017439
7.20605328720906
6.11528356154072
24.6101676864015
21.9957490058138
4.59408192253025
4.4661408145593
20.6590369176651
19.1421028683983
4.14998027969857
2.52965845378224
15.5314445413695
14.3688382440271
2.07560902942453
2.28246292719753
14.5219564938089
13.4059999758517
1.76205173240435
3.21133389475031
15.6657187454499
16.2725387948383
4.00747372634062
2.76517948815828
15.203608631567
15.2732513292327
3.3045130550836
2.07517619614446
12.7257494932896
11.9335936460209
11.9846805962432
1.0018658530999
1.00781179766063
1.00207907892772
1.00041493055955
1.00145575008325
1.00839687212949
1.03932065997587
13.1930629723673
13.8435919464882
1.01381654631378
1.10447160290428
14.3406538573044
14.1245113440819
1.11384781360485
2.40040605369021
14.5973914516572
16.0448206009256
2.3321272042884
1.80920105736008
17.6605100383069
20.4609200319203
18.9785950492981
3.72596104768848
3.30441478123386
5.48065343797203
5.06283430547489
23.3117658797883
26.3736475509297
29.4749462313567
25.7990063575889
5.09880785395834
5.16670161010592
3.29682367189996
3.76699803481918
3.75920843883737
3.28895035719054
1.29616170435684
1.38423738915797
1.39487237476942
1.30265525712782
2.29233556874653
2.48257630336578
2.73174204612966
2.39335069967188
2.63058493847661
2.96331196677318
1.53090968987868
1.43081417084635
1.61569127810306
1.66338646203404
1.25964767163808
1.21714973733359
1.29701986999653
1.3279985308101
1.13505327061154
1.12186559431615
1.2085246892314
1.21683382749801
1.17154145469395
1.16027423727402
1.11519445126947
1.12630285530159
1.16096434679154
1.1509617105207
1.1436422763347
1.15443398262708
1.18915558537052
1.1777929813245
1.17830940099863
1.19390063173088
1.23220420797176
1.21561337839348
1.25813498465835
1.27808766737223
1.33325226118449
1.30234694838967
1.28526195609987
1.31665976684378
1.37096175836036
1.33037188105782
1.42140852462034
1.47636598226942
1.49355173671556
1.4407518297485
1.47102773076108
1.52348025754587
1.74292093005278
1.65311940865661
1.6714107865827
1.75676546613613
2.18879619602693
1.98364152944331
2.0282994304186
2.23527398155993
2.41845374819929
2.29296051954368
2.36196712656209
2.42299661734067
2.42318268792926
2.65222058761787
2.28631102305175
2.39847247853515
2.39765245537544
2.27156876171743
1.98176613877786
2.20741089957259
2.18483843051989
1.96322457124774
1.63965717428969
1.73071587844246
1.72411711944686
1.63280021155039
1.74171449170422
1.78454151206869
1.81169992694072
1.81208123439518
1.81760716983255
1.74639234822203
1.74146721504741
1.73854795486109
1.73321239985644
1.80565689786687
1.81613259274937
2.10180232323071
2.06060445228993
1.9286730465998
1.83751452924286
1.8494848433423
1.79567224658538
1.72319736731152
4.21317761402097
19.6867815331792
17.5848436602553
2.87628716916855
2.65321483273063
16.6705180597505
17.7739105151225
3.16567797556327
3.10175014815127
16.2364865155671
20.8885409782354
5.54747794814562
4.08525599650576
17.9327484843254
20.2404763202748
5.34925081905815
3.98546906739073
19.4065904815908
19.1073549929806
4.72763694500166
4.91646042653382
18.5196864965811
20.3521016210425
5.42981681247033
8.31375190905412
26.0332146570811
27.3471466549016
8.93459164110596
7.5820628845637
27.564336631743
29.8356546540319
8.18641366203243
6.6797856316736
5.91705164567531
29.377976946665
29.6871453089338
26.8565784242279
5.42625683479236
5.19955384581916
27.8431561848374
35.687541427039
35.172669807626
7.88667942820211
8.58819084301182
3.67381538815528
3.14104546150722
4.40814382951604
5.0560364094129
1.98736749480275
1.93307278334702
1.97190295177422
2.02610528965277
1.37599668076968
1.34235799759668
1.32104841707057
1.35492671823804
1.35982702874679
1.32501586316581
1.37340330872376
1.4105314795976
1.26231518760678
1.24330615979209
1.24659035738016
1.26034774880399
1.21093085154423
1.19513002274246
1.1913165781173
1.20846271376411
1.20034337043102
1.18860670045698
1.23548621429648
1.24818643514235
1.23191899520319
1.21930534194992
1.2678518612933
1.28378950185128
1.34582962409933
1.31733814549818
1.37447262064218
1.41425533514638
1.39247826672157
1.3522861372953
1.37551056256583
1.41401743289071
1.44702114643076
1.41051776046281
1.39274837734007
1.42652963857939
1.42063429924784
1.384537425001
1.46849574252438
1.51855141414766
1.54905880150877
1.49831676347657
1.50465684363591
1.55606275008354
1.7664278320715
1.6785694512786
1.70564283561395
1.78606138407464
2.19996004785613
2.01005466263687
2.07394174813392
2.26804557084154
2.45245442553847
2.3256969749538
2.54885309293364
2.54610453878689
3.93158052589878
4.13527748110416
4.1778296352526
3.95692639475987
5.90221240951404
5.82524726565093
5.85514286862557
5.90385578372211
8.56710872801814
8.58562935184027
8.64114911366025
8.58357465252793
14.8467421268614
15.5067549576747
15.4393660943604
14.7690651057852
21.5123450606856
101.509314933317
117.392327343745
26.1561380720226
26.2525030575614
123.422743683335
106.263419221564
21.7052070982214
20.4015138475899
102.066527916635
96.8961492730161
20.3460955044351
20.6815746833319
104.00959354347
104.403175334964
20.7911943923169
20.7300875291655
98.7681611176984
79.8763398238736
19.7594310495206
20.6024539946732
71.338204548364
63.2465004027739
17.3031932023007
10.5964662972548
7.5511394103402
6.20382497457957
5.76368125845868
13.1445981469837
43.3338313157031
36.2011578087503
9.47715908920232
8.85628560480262
44.5512030513119
42.8714627743676
8.66845382799305
8.65768831033498
41.7641903786669
7.6061352819486
5.38990017537793
5.57557075721078
2.52683538669399
2.64714095909652
4.161339807362
5.10773140192829
9.63116341172752
40.305583167396
42.444422961096
11.0257642283852
10.2807663744053
35.4942102806954
25.3377139871329
6.0436056255425
5.04947330477321
23.1097698331076
25.9289109005175
6.62044285204985
4.8018413970809
20.8876740960958
18.6575658634459
3.43468923211316
6.36480759901292
26.2696245272463
24.7672091821425
6.00451767401415
9.07334016628533
32.7477979961814
42.4668330388183
9.55642360757528
9.59189327857902
38.5014237729895
33.4325211996136
6.75748805225506
6.60972615227174
31.1273995511908
26.0396275175644
7.07447704809724
7.55701699476897
25.4632899180083
23.7326598171544
6.13885920757855
7.9225873672925
28.6101567925437
32.216923447035
10.6039608244777
11.0712565506895
35.1012795122738
35.4542531151579
10.3166604019033
11.8065427677167
44.9233548751459
43.2626314074509
44.1086575531465
9.26780497050233
10.110298051827
12.4854028867706
12.5570620603919
56.6003844241692
51.0612610403496
54.2123407921364
13.5929050589248
14.7621829362506
60.5145545848125
60.7835234017929
74.1746535785869
17.5488981997414
15.8472731847276
12.7073328692456
12.5908617371404
11.6142394675952
12.2246016291841
5.09537848499354
4.48841056639777
4.49809268795197
5.08723342298472
2.16544308538309
2.06920278406931
2.12847819409441
2.21974270478394
2.07356185593004
2.02630547074778
1.38069827931662
1.41354937384286
1.46343440830352
1.43048291225937
1.49309375418022
1.52851503674775
1.47180281384535
1.43425629388576
1.29960877793192
1.32002427709577
1.3166071087326
1.30127222178482
1.2462769190618
1.26367368447881
1.25790147274965
1.23909165195793
1.29475620588518
1.31807674400216
1.3056557544287
1.28941686305702
1.34564373219435
1.3745405583616
1.45177887814953
1.40990573505946
1.44229222978066
1.48157384144432
1.52707918200772
1.48923342692605
1.45507704861795
1.48641346358572
1.48235512493107
1.448313965156
1.42458601956409
1.45927134219375
1.50113357369144
1.46659611598383
1.44792243168579
1.48420964853363
1.46330895906517
1.42887465831605
1.41823108153948
1.45300958541953
1.48541569257393
1.44960737227108
1.52560547885245
1.57785316884441
1.5883598432565
1.53555273800697
1.70127176358836
1.78967285827594
1.81681852967265
1.7363538592153
2.03068488196582
2.21430034108555
2.30365379568824
2.1124963040667
2.36033885743646
2.49151946383483
2.57984276584293
2.59446034012839
2.64177103926124
2.6181923326952
4.52652894628256
4.73841295851964
4.69393333166293
4.46085156958173
4.75249602926005
5.00122986519126
4.92442081617264
4.64672994770189
5.94165371488622
5.90688742710107
5.97477415649918
6.01211514208327
8.70129696486135
8.7518427370841
8.89897384685351
8.86782608588459
14.7835682293873
15.4511211967661
15.519699318328
14.8468686995018
21.9597160933514
111.882219173279
130.392091512299
26.4193253991296
26.6538438185358
22.2771929447015
118.332369357664
138.500785354296
147.727417687638
26.9374541528273
22.6590120185725
125.390364282438
121.457590694903
20.8997725081003
20.6705334066247
114.622085022002
108.10951574924
20.5069287734947
21.9687604423996
118.494864816118
117.862772167772
20.9490558383424
20.8457778997757
110.830804320797
107.590169398856
26.2193591814904
25.1103115453322
94.1850662290486
92.1585001503475
26.5658504152772
22.3482029485945
71.4848130150529
65.9420711196051
20.6972220159888
17.5082256138878
58.3828284009481
56.4696771439737
13.4962813992373
11.489530431854
48.9821105865718
7.73094895405152
5.35843688979397
5.74480632898015
3.19135883426347
3.0644792031709
3.2891647618319
2.03478776070031
2.66814980446088
3.62164491615747
6.39565959559391
24.7252581927307
26.7267340312799
7.49245916993954
7.96109703385222
31.8111154615048
41.2818681316817
11.6928620393197
9.72404288612061
36.960674638406
33.2206420243206
9.78054060280019
9.04630954892557
30.4643203100148
36.0810993971108
9.10853545256569
9.56343451075631
46.7343091773208
44.5084222811915
9.34170704481411
9.37819639874126
43.0992315566399
42.4701861639263
9.28617849819007
9.20803479005735
42.6346019919213
36.1199605484117
6.78628112321709
8.26684581661723
40.1717794906993
40.1308879703327
8.23084742536834
8.23717022046511
36.7837489267949
40.0309812779918
8.51297633448804
8.22872909323455
31.2174042225651
29.0415107701072
8.44076471977734
9.49115009924403
33.3468484058511
41.4512742798365
13.926362373069
14.6920404697948
46.0159541508024
54.4723154135117
13.804478391289
15.9726289314985
60.4025648798326
66.5094375525598
16.2579867306157
16.1611288200445
67.7215207497491
61.7102414999975
14.6411883935738
15.6247351984893
16.9691323912518
81.771332314395
63.9347698788902
61.7617867920359
78.527059858659
16.7194683275917
15.5057833774852
11.0961794929041
10.9860602499208
4.7673316504019
5.35853481551637
5.14585371976991
4.64223085550354
2.19920585495026
2.28807050961081
2.12215157692929
2.0781445942277
2.13901509511893
2.18250598267929
2.25762385156033
2.21148137145636
1.56967091047499
1.61020855558256
1.54625694444521
1.50499200296184
1.36806292085319
1.39365782708168
1.38776404771662
1.36748006049821
1.30739275881626
1.32920920137291
1.41235902824092
1.37679147010766
1.35591210813604
1.39196717190217
1.484727361288
1.43327664132482
1.47669222170893
1.52688009416451
1.59475796881318
1.55293300720967
1.5134383011124
1.54283541135849
1.6161303169384
1.58524610079137
1.55056395060388
1.59339861778345
1.53500645067372
1.5043015151526
1.49285269364044
1.52949662093268
1.57873137610775
1.53901735193719
1.50639336183817
1.54274511957333
1.52118566345333
1.48299871473453
1.46151983909226
1.49821670609648
1.53079333319279
1.49143266980115
1.47881509986834
1.51690238730717
1.60459206796451
1.55084197159491
1.56434152086916
1.62043768909067
1.81223013305747
1.72236493735757
1.76486522916173
1.84765252371732
2.23022878522271
2.04951871625275
2.14880876843544
2.34047814796285
2.53500633632069
2.39695523412597
2.43479528905658
2.57877330986899
2.65621956115237
2.68417748249239
2.72993588451699
2.69665446445206
2.7368882281432
2.77332576905028
2.82203458260729
2.78035692329061
4.87307276711634
5.16124840150974
5.0808549486751
4.76527090080301
4.97972844671762
5.29327568182589
5.21200496036872
4.87413906066647
6.10664284049231
6.046472260859
6.10462428256738
6.21510656564895
9.06442450812949
9.07429754451426
9.2680190072227
9.29278233424784
14.9561669480614
15.6407234883624
15.8098575162296
15.1158185823085
15.3244709471294
16.0200651945026
27.2715634269998
158.245119942629
133.100847841474
23.1020262357011
21.1717403008893
128.576322175266
145.045897923153
22.5112926634706
21.6322968676155
141.349126909887
132.812146387072
21.2925821746245
21.0957418452687
125.016557584432
120.588903369892
25.209875640759
25.667037742221
113.835286587522
138.614526476665
30.7055972198202
31.7313670421658
130.223358849361
132.077045520812
32.1430119191861
32.4354422903567
119.003838434625
133.122604220863
31.5439588920926
28.4179689672235
25.0345418607696
27.0324019253672
109.664247495643
104.820032480215
26.9103713822827
26.3646234751798
97.4948843238197
94.2049220230051
24.8824747600568
24.466453047452
97.2598381813355
101.722060939238
24.6257853208902
17.9283506711261
71.4833017718978
62.3283804509883
13.8264440081206
9.47129505258826
50.5697298766237
47.878355299896
9.02823511220417
8.35419985016294
43.4619661778771
51.6993330409731
10.7751375926501
10.7215751387297
52.911844799021
50.7311636216096
11.4961502466091
11.7756963221073
52.6263414870582
55.1829442071427
11.9415182514635
11.0708210938496
47.3696975142018
56.0685211707474
16.3673069726771
13.9273709855416
48.2731196227037
39.0788803451969
11.6239673237267
8.50494958883004
32.0230070749403
29.0204270837263
7.8194281164933
7.0270974686651
27.6783277728455
29.2244097737818
7.85042437549501
8.19667594676041
34.2608818549164
46.4269368434409
11.9465788044774
18.1299190858016
66.3070603707554
54.2798151105426
15.8660607026216
12.7242077083204
47.1383147879114
41.2205021339384
11.7231677733837
11.5148275016339
44.1649104964487
51.6602914715992
10.1409351206453
9.79145461231505
49.0308656785541
48.9212936375515
9.99855674697041
8.02388814486642
39.8168643755905
44.5503184104659
9.76952901422419
9.12116483421313
42.6498946641612
41.067710632398
8.66190804711946
8.39205917554438
40.1713991669986
40.8963372925331
8.68029966197936
8.48134435191778
32.7580882178575
32.0185388717111
8.73254410351714
9.98971413631929
38.1419749808431
52.327291067481
14.0790776448955
15.4375697427171
66.9659312240501
69.0920384450601
16.2381354831026
14.4742995574412
61.2383030867034
61.6815194771052
14.4946056867525
15.593205854594
16.7209515961483
77.8317681238797
61.1115081584434
61.6447061639965
78.8288486612723
17.0179638523909
15.966778271044
11.4416083335355
11.1649394803016
5.17967350574579
5.78094293058809
5.25051084972827
4.79231982883498
2.39640453257443
2.48519567239583
2.62746095874919
2.51812030271683
2.29241388480728
2.35913710289191
1.71643451295242
1.65512815954726
1.58333426310958
1.64187139086579
1.49044179305898
1.44722521206863
1.44496839779364
1.48138540323614
1.61580982037721
1.55469092161438
1.4728039602616
1.52773315410951
1.57459318640183
1.53630822586601
1.64371998456968
1.66679646954487
1.59605548304713
1.5749680777224
1.69254712033212
1.71535368990745
1.70754649176138
1.65404095867157
1.7947716956665
1.85736012269583
1.71492549388082
1.68182431174478
1.62601876599557
1.67241652379877
1.59182619832508
1.56034300092309
1.63057513999251
1.66305398303111
1.63394675774322
1.59110759771889
1.54699433897522
1.58544798187886
1.55799302077063
1.51657193494409
1.55093580465926
1.59658977848581
1.56224347852657
1.52040007388131
1.50631586548392
1.54689576607128
1.62930777129022
1.57437458062917
1.59205278658173
1.65161789539221
1.8345451181609
1.74314883758858
1.79278157790845
1.87856111033577
2.24754652743867
2.0690184304607
2.18546859773238
2.37751179712964
2.41382242247024
2.22161175717838
2.47416569369682
2.62509002499619
2.67036037283296
2.51364146035827
2.55394058141197
2.71484758318866
2.75644727297666
2.59300895233135
2.86932572758325
2.82288372065263
2.86800091915126
2.92175027246825
2.97177259045464
2.91072344170634
2.95496935447082
3.0256088831639
5.40772976757669
5.08126946367434
4.97290500097
5.32444555088546
5.50153704683137
5.17242196513775
5.05617208706418
5.41418866876779
6.15256181513006
6.33068971306917
6.44372096146561
6.18995447076205
9.46862107694925
9.54645917990888
9.81404286244303
9.66073050488427
9.82418056933213
10.0772291025073
15.574587884661
16.2619100614306
27.6676743757045
170.228509674092
141.626547451519
23.5906585715619
21.4894343697727
136.127629449209
155.212018478904
22.7838272797863
22.1678424293959
150.560198673691
149.650080136316
26.8572761733499
25.4885492144061
137.583082019607
128.413046427451
25.1423988607703
30.9073305848887
157.113333332747
143.130443386261
31.6786803280522
31.5709143992415
134.237673509908
102.887199190403
27.2770902293399
27.0595946031097
102.868770837184
96.1101055403269
26.0478259312284
26.2911584566558
104.334527067303
101.966404732295
24.9632572879115
24.5963805702924
107.506073665526
103.615384210991
24.449933285235
22.2284655406538
99.3060375659356
99.2629933573391
22.3327117387293
18.6063231385417
74.5473714561817
66.3274201628738
14.5098493590003
10.0615102342077
53.2624300789237
47.1165783264816
9.07711213827193
8.65904810482328
44.9571783226848
6.22634637445624
9.53392830740334
9.50727317911371
11.1298372570046
55.3028435760299
58.816097680892
12.1193276083102
17.4159318368667
68.3302298610111
63.7789295233756
15.9398398419029
25.3750266187511
88.3379387490515
78.1500572054004
23.476898030366
18.0530512267759
58.5773516699532
45.8360507408519
14.3857942992801
10.0557604481133
35.4581334802452
30.5212501149067
7.91742078336853
7.25497891520465
29.1252533040794
30.4238498304415
7.97495438102393
8.41141423499076
35.6318249129653
48.7949339835115
12.0533860425983
18.7354965092171
71.8875479118604
91.4229671678904
24.4669049678444
25.825479790211
119.806568628794
114.074955427504
25.2034501606347
25.4787609295587
110.6327746885
101.298324002518
25.059427785842
22.8843154092412
81.8884490093234
59.67311917667
14.4126073921781
15.2722267252281
60.5985826104685
52.9321678414018
13.5813172531878
15.3303714105504
57.2595175273088
48.3283048958156
11.4625532900123
11.8064617252978
48.8827183511427
38.5778521628487
13.4603839688382
14.5350964339141
37.2993650334773
44.4334927071872
17.2040142432544
22.0912580913819
64.6769046305592
84.2362149708862
22.128381739209
24.8306494173838
91.1212625929595
83.3951608420541
24.3527433805657
29.6848775466407
33.5644924693186
133.311930278498
92.1629326953396
88.7918266821103
126.652132238811
29.947478480116
26.8926661556723
18.0063515950356
17.9001944468768
13.589763707461
13.135166378605
8.7173612590544
8.47454407979241
7.82724106759371
8.3069684081288
6.9837362849518
6.55657284126724
5.33377986099163
5.67422314403656
3.92439187564281
3.79532708555297
3.66248607018844
3.77033682780795
3.54151175210388
3.44282319042204
3.21685409463342
3.30414114106417
3.07878958186302
2.97498571674355
3.04254409935673
3.12447774991385
3.25502212830739
3.14481079031069
3.2294692604996
3.33264333030599
3.46787310856219
3.31551502116031
3.34607169283207
3.4684862632753
3.53633692776657
3.36211011464411
3.2771003723505
3.40759021609043
3.12052419704145
2.99438660489047
2.8280849756244
2.94358157483636
2.52072113570644
2.47203250450432
2.26294836993427
2.35407009759663
2.04619919072596
2.00224204820799
1.85731755511716
1.91154736949543
1.75721298494512
1.72295614804005
1.65607631763889
1.70152636383528