/*--------------------------------*- C++ -*----------------------------------*\
| =========                 |                                                 |
| \\      /  F ield         | OpenFOAM: The Open Source CFD Toolbox           |
|  \\    /   O peration     | Version:  2312                                  |
|   \\  /    A nd           | Website:  www.openfoam.com                      |
|    \\/     M anipulation  |                                                 |
\*---------------------------------------------------------------------------*/
FoamFile
{
    version     2.0;
    format      ascii;
    arch        "LSB;label=32;scalar=64";
    class       volScalarField;
    location    "800";
    object      p;
}
// * * * * * * * * * * * * * * * * * * * * * * * * * * * * * * * * * * * * * //

dimensions      [0 2 -2 0 0 0 0];

internalField   nonuniform List<scalar> 
207032
(
83523.5874115838
83537.2158313136
83558.8249856186
83536.212710544
83522.7533850153
83512.8490917734
83500.8967839071
83492.0954206063
83496.0462096563
83507.5159543866
83507.5890490534
83503.9064433906
83504.1716244418
83512.4429292938
83511.9946090459
83520.2365790839
83521.7525112911
83520.7380943085
83521.0568755501
83531.3347119597
83539.6621406343
83544.1357478858
83531.2955024718
83522.8253617581
83523.0572758215
83530.2632711498
83529.5878265119
83531.7224567793
83537.3173435514
83536.6820681964
83532.1348317445
83533.0043960709
83534.4998060636
83533.245062856
83531.8311466684
83530.0010356939
83536.4617854904
83545.581689955
83533.0604630828
83533.0283841417
83546.1180389734
83530.8159818772
83528.3169018366
83532.9439808272
83547.9083261626
83489.9315150441
83502.4739331001
83488.6735058246
83465.7596529196
83471.0287421975
83486.0317169058
83484.1875643964
83459.4054733555
83555.4754511853
83554.3188039073
83517.6197409651
83509.8601956507
83502.4752875891
83502.4859242152
83503.0230465106
83502.4528771015
83501.5050322
83503.0855292727
83497.1718639455
83496.945247284
83491.5219170922
83490.0500666281
83472.1314190501
83488.7094900938
83507.6338569675
83501.7796020966
83522.9734004863
83563.2528397756
83547.3814239607
83526.6175862756
83509.9408919326
83513.8209460782
83488.6999730067
83478.5471231401
83484.4769386071
83491.1702356832
83495.7419936586
83494.5886350415
83495.3541006653
83496.9312584274
83497.0092564173
83496.6174000393
83497.9513923919
83497.7929427698
83499.70914851
83499.9476939229
83498.2748687199
83498.7777776295
83501.8763706466
83502.0647144508
83508.8323934342
83507.804476522
83516.239817993
83515.8266491289
83524.4575288382
83525.4901430433
83533.4590767963
83532.6642456542
83540.5961239582
83541.0710149831
83535.5796506701
83534.9802251721
83541.2408303477
83541.7438115628
83536.722898866
83535.8987184695
83533.6241638688
83536.608936189
83535.3980048809
83533.273616799
83523.3442073688
83532.7473886055
83533.1197755313
83537.0895710328
83552.776135822
83536.2853999527
83537.2568308838
83547.1154583864
83544.3994979041
83539.5231299607
83539.312130826
83541.4278551124
83538.6694309614
83538.3625802636
83537.3533462387
83536.7260199647
83535.9713932189
83535.7157597296
83532.1900501878
83530.8968362071
83529.5246859088
83528.4034888674
83527.0273674121
83528.3566426238
83529.0216478801
83526.8449938617
83524.2811810952
83531.366998565
83515.1512558852
83519.3507288088
83518.2428737603
83507.9354032351
83548.6566191755
83512.8902463161
83505.8749154627
83501.8839663275
83498.9418373831
83496.8778571239
83490.5719791541
83488.5623961054
83477.3356534814
83487.356649862
83499.4528365497
83506.9045181469
83524.4007356074
83503.5505148884
83494.7201064207
83510.2394960573
83498.8056081781
83495.3969336338
83496.800457797
83497.9350796206
83501.1006484123
83499.3089401922
83492.781778111
83490.6004258983
83492.7883266767
83492.3134096559
83492.7603423818
83491.2037417647
83492.2096102618
83492.7430210574
83495.0070765832
83502.9480223432
83490.1902016778
83488.6487194721
83498.2003317035
83492.6786316732
83490.4790150269
83491.0221895677
83491.6565906696
83493.1382344897
83492.8039315947
83495.1441527112
83495.3519504387
83497.4926171539
83497.5808042053
83498.154679849
83498.0787608441
83498.4991876961
83498.4172279669
83496.079017669
83496.2592012729
83496.3945932607
83496.221075757
83496.3794676795
83496.5547442696
83496.6705423222
83496.5458586334
83496.5786642613
83496.9397053717
83498.1632388635
83497.9788683602
83503.1593055605
83503.0166773063
83510.9988998051
83511.7351609243
83518.0633629264
83518.3038583206
83517.054334425
83516.7393475466
83524.9389027383
83525.5126599567
83535.1390298446
83534.5416257044
83541.5943283104
83541.8820308933
83549.6865428235
83549.1461017893
83554.1680431562
83554.7455840506
83549.83793838
83549.1174480165
83552.5041613746
83553.7294703871
83549.6104660442
83548.5656917107
83543.2227541693
83543.0856878959
83541.2926704647
83541.8448539807
83541.496465962
83541.0270639922
83543.8754388418
83543.8193343186
83538.7509974211
83535.3446407189
83538.8064387503
83539.8506897228
83542.6233884203
83541.2375371734
83538.3353836939
83541.5171728855
83538.8942327152
83538.7294669815
83530.8984296785
83537.2196500193
83542.132919885
83538.951331355
83530.8666453271
83518.2930156258
83504.5289867588
83489.1792069981
83481.4955191521
83473.2737680103
83476.6391469642
83471.9634701821
83479.4324487015
83491.840294849
83506.2374389437
83502.2295101188
83493.0207349642
83496.6541419812
83493.5137602706
83505.4608470044
83502.9460106404
83497.2661929341
83484.3605506722
83488.7453035185
83494.1463622733
83492.6815898605
83490.888033181
83491.2931572759
83492.0462850535
83491.8418902201
83492.2597110816
83491.267062979
83491.4854943221
83490.2693656505
83490.7365059255
83483.9146606543
83491.5485390813
83489.3640333702
83487.5998581396
83489.6764499215
83490.1440750771
83489.0424334211
83489.0248608688
83491.0090209809
83491.0438283651
83493.1455729536
83493.2089021444
83495.2573451954
83495.0459231387
83493.051115034
83493.2055740612
83494.3452200327
83494.5593941164
83494.3907730206
83494.1982354114
83493.058701935
83493.1031866823
83492.8357072378
83492.7207662752
83491.3114273442
83491.6033277079
83494.8403425495
83494.6256656722
83496.2647962703
83496.4938795815
83501.1910393223
83501.3482095443
83510.9808009695
83510.0529116631
83517.930344184
83517.6992815949
83518.5264755353
83518.7648349165
83529.2826469598
83528.9317095651
83527.4108226708
83527.7645208312
83539.2502789483
83538.7121541671
83548.6137852449
83549.2593942292
83546.0591998759
83545.4204068588
83553.4291819845
83553.7729981583
83561.2264817151
83560.9809031355
83568.9242474935
83569.1031884057
83562.53589553
83561.9419010479
83567.3823130849
83567.7837256766
83560.5139977029
83559.8437947889
83564.7151806204
83564.62180776
83557.3307914627
83557.4340301168
83550.9661961739
83551.4184230547
83546.3771497915
83545.8185872748
83548.3522274059
83548.7086723925
83545.8285297632
83545.4922750833
83546.7583096368
83546.8140190553
83544.3129262721
83543.7752100062
83541.599550048
83543.6327402485
83545.439562208
83554.2165924766
83544.7574133327
83543.4268724271
83544.7930880277
83543.6290396513
83543.8719380686
83545.0079381466
83540.3917165492
83538.1741607932
83529.3147395044
83537.7383381815
83542.7266163772
83543.055787468
83542.1186615029
83542.4213518729
83545.5333218128
83541.5575531521
83537.5334192372
83532.7613730584
83535.1696764547
83536.375565097
83533.3256466621
83531.2853956816
83533.5068862229
83536.9525111076
83540.0077144829
83540.5296621662
83530.3785232513
83540.0752676418
83534.1404343243
83530.6882650793
83531.1271567724
83529.758109916
83519.5113606284
83520.0536472963
83521.922801423
83521.0444238021
83522.8589973611
83526.559145316
83519.5115824189
83516.5476926778
83520.8620047053
83526.7184975783
83514.1038980189
83516.9548980274
83515.7940480222
83521.4514446138
83523.666064718
83514.9156845721
83514.7741239106
83529.538393745
83515.1266392526
83509.2763072149
83504.3980341131
83513.3221890835
83502.9331250182
83496.8628420392
83485.3909563355
83482.8151796405
83480.1582623443
83479.7705577675
83467.2016324689
83463.1420768151
83442.5528579209
83456.009674841
83438.3596728635
83432.2842913509
83468.2798519864
83468.395849064
83480.80846442
83475.4632157584
83492.9880111748
83489.6693146269
83491.1374606665
83492.1880206145
83488.7366513193
83488.2916400092
83490.7727097772
83491.7767293975
83488.9242515474
83488.7582176881
83488.6232849486
83488.3256838299
83484.2844527032
83488.1208527655
83487.3600666087
83486.8007663909
83484.8922512189
83485.2231355528
83484.8299090596
83481.5164236745
83487.0791689402
83487.2288962671
83486.0853305469
83486.7090625569
83477.1061518294
83482.2067081659
83483.0840010861
83482.2855340103
83485.1761873786
83485.3770194028
83487.097168879
83487.0399345827
83488.8567899677
83488.9085959998
83491.0284255196
83491.0572244259
83488.5694168725
83488.9155450727
83491.7336168714
83491.5299387513
83492.8821383975
83493.2518840232
83494.2724787633
83493.5624100963
83492.8638772536
83494.250090292
83488.8084461898
83489.0518326001
83488.1731319668
83486.4949312648
83491.3800943913
83491.9565259197
83495.8213609736
83496.0811261453
83506.0891607197
83505.542644118
83511.6020412045
83511.2555058294
83515.522569503
83515.7585222368
83526.07997033
83525.5676216458
83528.2059968163
83528.6356400644
83542.8789446108
83542.463461585
83542.3287918322
83542.9016779617
83556.6547640932
83556.1440428691
83553.3677125662
83553.9715700044
83564.2869860006
83563.9336952999
83558.7275442586
83559.0347478131
83568.3705883462
83568.1708543009
83577.5037395455
83577.5914775679
83587.2267419351
83587.3063429352
83576.6575866035
83576.6730629085
83584.385440534
83584.6273153481
83574.0994905083
83573.7894264537
83579.7080648529
83580.0486997798
83569.3232862923
83568.8216562797
83560.9013040869
83561.2280300658
83553.9204839444
83553.8666806278
83555.9230236918
83556.0309289415
83549.2211674247
83549.5552117126
83549.0246597909
83549.2462426409
83545.7904284343
83545.9340448564
83547.0397493473
83546.359032214
83544.5072601903
83545.9438689338
83545.2266544391
83545.2490290131
83544.6333247601
83543.9023665301
83542.935328633
83543.3771227944
83540.8804093731
83541.3963560642
83546.3755304177
83543.1445530991
83540.4434923462
83543.4333582142
83540.5552751056
83537.403860237
83531.1951319461
83533.5514535664
83523.1961017975
83529.5981287306
83523.5558897085
83519.9850700427
83515.0122871116
83514.6244659192
83502.2822970016
83502.9657582201
83509.6793617166
83508.8255899825
83512.225619378
83512.9058613068
83504.6731115499
83503.7961686525
83509.0071955222
83511.547583548
83518.2702904487
83514.2843949916
83505.0278961408
83505.1525582114
83502.8857750794
83500.1429054293
83492.8379876818
83492.8694770353
83487.494430047
83487.48643104
83478.0203130197
83477.0248576415
83466.7216814966
83466.5299475267
83454.7088775296
83457.1475459739
83450.1961138739
83447.0546511161
83429.0682641187
83425.2960505177
83429.1253500352
83420.5256323684
83407.3405169899
83408.3325872636
83384.5743992131
83385.2825430915
83428.5168986212
83428.2308153208
83458.4267735193
83459.5474235707
83474.1146444096
83471.6991231662
83482.5912397646
83483.1444284673
83479.9764987328
83478.6684112556
83485.2954662421
83485.6739805469
83483.4984134904
83483.014489939
83487.8246602251
83487.1756562551
83485.9684968544
83487.132292798
83483.5701418636
83484.287820862
83483.2090235788
83480.4246424884
83479.6116115822
83482.8577208836
83482.8026958223
83481.1009988773
83480.9418351199
83490.3734775228
83486.5764565555
83484.5363379058
83487.5050601292
83488.4785619061
83490.6704502486
83488.9465600988
83487.0945570331
83487.8958575155
83502.3515496105
83492.7727403096
83504.0258972876
83533.1380398742
83538.4726212973
83497.6879889649
83473.6593245138
83447.4320399413
83460.8403073619
83478.2442991807
83482.0320264316
83478.5920186073
83475.3276394569
83468.6011358343
83479.5455290496
83482.8315662761
83484.7471422575
83480.9149354392
83463.8023888453
83476.7849162771
83476.6193429839
83461.1630568273
83485.7731422268
83486.6662906672
83488.1854291554
83487.0060770113
83485.7027774449
83487.5956938485
83488.546629151
83485.9517269188
83489.9533121333
83490.8841630823
83490.4484174942
83490.2109871499
83494.0108526772
83494.3428467032
83500.9066893565
83500.0149356857
83506.8739306146
83507.3884516565
83515.8605152682
83514.8830200418
83519.7599689348
83520.5161008858
83531.8835971462
83531.1267049283
83539.3640127634
83539.741951517
83560.485953346
83560.5969709051
83564.6572170791
83564.6328753857
83558.7918226928
83558.4705764794
83571.4304269765
83571.9924112213
83568.5123240968
83568.2083177372
83580.8976307306
83581.002859992
83575.0207613221
83574.8096149256
83586.255807193
83586.2642487353
83598.1401312845
83598.5087937122
83611.1521818328
83610.3658722064
83597.0004327594
83597.396698242
83606.7280589713
83606.4486023947
83591.6575582512
83591.8530717351
83592.5428501208
83592.0364888329
83593.9531635062
83594.0318270194
83587.2989507225
83587.3418288133
83581.1326971887
83581.1971940491
83575.442570099
83575.4354345513
83570.5785501476
83570.6618537315
83566.7066362248
83566.6190180285
83562.8952944649
83562.964582424
83559.8839287031
83559.5981543226
83560.0028987889
83560.6721503735
83567.0049979332
83566.4681851355
83569.3415610231
83569.9339739674
83575.7869162538
83575.276517336
83579.7978997804
83580.3502116383
83587.8438108647
83587.5552826115
83587.6059271695
83584.605432703
83591.494983667
83591.790798523
83590.0152608269
83589.0568018285
83588.4290247138
83587.1182569746
83582.5390279373
83570.2830417014
83556.6888110882
83532.4128269653
83522.3257293829
83494.3906449635
83463.4517361217
83449.5384028434
83428.1362175139
83421.8808903126
83413.7676085021
83413.9116132723
83448.4729085051
83450.8210031008
83469.9719591525
83467.384401872
83463.236403493
83465.6409450587
83476.982087293
83475.59113896
83474.8055439437
83475.3590680224
83481.6847158542
83481.5823440725
83481.135265286
83480.7355169376
83481.1975093074
83476.2826524355
83475.3923333394
83481.778864664
83484.1156569616
83485.0878778597
83451.6322107699
83476.3922151426
83488.7883265701
83473.9003002953
83462.501812366
83491.697705327
83498.6594041485
83483.6980096565
83520.9469726265
83507.0985231904
83504.7613397493
83506.3957095184
83504.9850044435
83505.5966726459
83476.5396293912
83493.9081981868
83494.697329094
83483.4729315106
83528.6978361959
83522.9196909726
83514.8556221396
83514.3355440508
83508.468802808
83509.1768030836
83513.1468375651
83512.2738516131
83523.1581268364
83523.7541298667
83533.3640653245
83533.1381669405
83538.9923297069
83539.2022105222
83548.2874988577
83547.8901061543
83557.2937358929
83557.3587220852
83570.3619053812
83570.5824927102
83581.3404475033
83581.2435748512
83587.9415784176
83587.881702651
83589.8251379667
83590.0882213537
83590.3480660672
83589.8453398033
83585.6275006348
83585.9183889992
83602.3135754997
83602.4338882161
83595.11669182
83594.9473241391
83609.7219702755
83610.3155549407
83625.959344845
83624.851309762
83639.7240268504
83640.2645078144
83622.5829611257
83622.2006187644
83623.2649635952
83623.6439186223
83626.4803467698
83626.4832180599
83616.9927104306
83616.9403616176
83609.0337423663
83609.0264047917
83600.5480069812
83600.5424400144
83602.7236472605
83602.7406759898
83596.2595660157
83596.2975311995
83588.4711634562
83588.6249607991
83582.7639204624
83582.7451083561
83576.314794802
83576.5211352366
83571.844239745
83571.7677229039
83567.2139824875
83567.3695107217
83563.8876990179
83563.9229277796
83561.7103983562
83561.2203335645
83560.1254128597
83560.5745945925
83554.9629694162
83554.7937965439
83554.9720240797
83554.9241890655
83550.1085825994
83550.4349276815
83551.0373366079
83550.7220580953
83546.4195834176
83547.2187245243
83546.0061095351
83545.1648103294
83541.6550028618
83540.3854328312
83542.014453584
83543.0633250292
83541.7749884671
83540.7769928666
83539.2491748037
83540.4971245843
83537.6743443815
83536.8421846327
83537.9221014242
83538.6197070583
83534.6485374831
83533.8674340366
83529.8520735984
83530.5984840389
83533.2924633061
83533.6847434602
83524.9178280441
83526.665933732
83517.6468498963
83508.9807792987
83525.4308640563
83524.1005160329
83528.721287194
83522.1534897178
83506.4954753085
83491.1085877096
83490.4090666546
83490.5991672131
83499.7986507256
83498.5996435076
83486.6590151589
83486.8169263149
83494.8550379715
83494.3327950233
83499.4201928491
83499.8490993046
83499.4342318649
83496.0660115312
83489.1635271925
83485.5753327327
83456.9397571169
83438.9121693445
83393.0303685313
83390.724281746
83402.3616078096
83356.5389872464
83353.8265652223
83331.7590761203
83327.9005619984
83324.265277185
83328.976516145
83360.842727804
83355.8875040064
83338.5142498714
83342.8097234859
83400.4874523485
83401.6809348489
83440.3821235945
83441.7596418396
83432.9287024276
83430.98760356
83466.6251328272
83464.96277343
83470.4468034659
83469.8695486311
83487.0729507088
83474.9978665947
83475.9265402403
83477.1369934124
83487.6330037362
83479.8411755759
83482.7194397086
83483.7608679428
83466.8857664546
83480.9031294405
83487.2887779311
83481.8297740104
83526.3496085097
83496.4118837311
83500.3027046539
83493.0760597496
83532.395320877
83517.1513320955
83523.5974951087
83550.1935758721
83544.3547851703
83519.9349580698
83512.4966215993
83524.6076814667
83516.0782642842
83515.865830023
83512.0195868489
83511.5765509765
83505.742980507
83506.5427033108
83506.3239227844
83504.9636983334
83507.4218527332
83504.059689297
83499.9741424027
83501.6446603728
83503.284070927
83503.494112738
83502.6120522918
83502.2634774808
83503.2237525957
83504.0919520485
83506.5698266336
83505.4825160102
83507.5772509431
83508.3702330077
83518.3516149337
83517.7736124706
83525.4106736204
83525.9131548615
83528.7235047008
83528.5136759104
83538.3204115544
83538.47135105
83548.4812431797
83548.4791415895
83558.651852832
83558.3487613651
83569.0611309342
83569.6812620628
83585.2443473314
83584.6492498449
83599.3123802909
83599.64142965
83607.6401154016
83607.5332461698
83610.5430872578
83610.5190208469
83609.1836579842
83609.2694903145
83628.402603897
83629.6675379061
83620.486248707
83619.5071063057
83637.5029392345
83639.2720025202
83656.4733947867
83655.4352865639
83659.8966316498
83660.4668921395
83665.1221614382
83665.1269475891
83654.2949355647
83654.2320220789
83645.3197924977
83645.296792266
83634.6546729007
83634.5207611398
83637.3170638253
83637.1595020266
83629.3419549255
83629.594826172
83619.0727104666
83619.0161821918
83611.6652997427
83611.7691427651
83612.2635489534
83612.129719225
83603.7269919185
83603.6740838931
83597.0826579479
83597.094901737
83589.7771047908
83589.6596129395
83583.7465247191
83583.7760505777
83577.6350228701
83577.4681027466
83572.5252205988
83572.6414035295
83567.9496589892
83567.7584302121
83563.8967822166
83563.7135099078
83563.9871973606
83564.0549614464
83561.2264644825
83560.8637522523
83560.1648105322
83560.3121785567
83561.0403176571
83560.7539828997
83559.9423531712
83560.0227602794
83555.0701025478
83555.0815969557
83553.9569786708
83554.031088744
83549.6367034258
83549.9747552987
83548.4343436167
83548.1422644416
83543.756091928
83544.5419609807
83542.9476801969
83542.1890224306
83539.2276919314
83538.2124575887
83539.5441535307
83540.4213084856
83538.3142623808
83537.1010397362
83536.2610761441
83537.5322295229
83534.4986363077
83535.26633448
83533.9905753365
83533.1675969387
83530.8747434818
83531.1242395564
83534.3950751237
83534.1861882522
83536.1597396863
83536.6046265083
83532.9399871549
83532.9990090466
83531.4190931156
83530.6569496753
83530.8798078294
83530.4487409818
83525.1868871727
83525.5883857545
83525.2996247246
83524.1467609882
83518.1135352773
83520.4814012655
83506.5416657543
83495.4858312119
83488.4374704626
83494.185156604
83479.4814890338
83478.5834156464
83462.27963992
83462.6570490266
83476.382956133
83476.7067417184
83474.0590067368
83467.692536107
83453.6415136562
83445.7244936337
83440.3090590214
83411.0138119938
83390.0383774576
83358.2918525456
83308.3560269047
83318.2859988705
83326.0290249718
83321.3762574927
83312.0980073822
83301.6678002146
83303.1554310627
83287.7182740847
83292.074952466
83312.5331327146
83314.7915990571
83348.2504094641
83341.7598076188
83380.3726620842
83374.8913367038
83382.6400155482
83388.7441656592
83386.1323112497
83382.8222854034
83417.0532050617
83415.8824748551
83435.1436905155
83431.2967638295
83461.2332390793
83458.357783683
83458.0131766851
83460.0274090966
83465.4751861768
83461.5590510798
83462.9255701141
83464.8319944285
83484.9623944884
83479.7036657751
83488.2968814355
83498.8285744432
83492.2389830164
83485.3650571875
83487.2571707382
83489.763898785
83487.1743544859
83490.6215702455
83494.6309010345
83490.8064618571
83513.5373962945
83505.1863877585
83513.6500728065
83531.7524657231
83507.6975442174
83504.6452602791
83500.0891525821
83509.3807854659
83501.9259818069
83497.496427649
83490.0628209168
83487.9440400193
83494.8668507877
83494.1050581327
83497.3163555257
83498.1950361414
83497.7009684605
83497.1729560707
83489.6265968691
83490.6923341224
83492.9985360748
83491.8340931129
83498.8390805385
83499.7668475178
83507.8692715327
83507.3680582451
83518.1469081279
83518.7207081035
83531.5132991032
83531.3789470562
83544.527429338
83544.5382984042
83550.9955999673
83551.1282683748
83557.1860196473
83556.7275790012
83580.0588110148
83581.1907273956
83601.1448208187
83599.6550577392
83617.7843386346
83619.5005683483
83629.2492507985
83627.5394021842
83630.9129470118
83632.4357197191
83655.1144400683
83652.2904548854
83648.4114178207
83650.7494007392
83670.1631996146
83668.5795038497
83674.7204774468
83675.466759768
83680.9757494854
83680.8859440743
83671.8659978586
83671.7851484612
83674.1422585521
83673.336956789
83667.8050470655
83668.6177599978
83656.6453774628
83656.2711939768
83648.483796067
83648.9448200342
83648.2492593217
83647.5587499461
83637.0177557204
83637.4224531298
83629.5807260641
83629.2194446892
83619.5806384197
83619.7233438412
83617.9861242895
83617.7972348667
83610.6574051144
83610.8586520664
83603.1108787196
83603.0933000237
83596.6028896783
83596.6561086711
83589.9280570399
83589.9406784217
83583.9583842841
83584.0012023128
83578.1222113207
83578.1603509796
83572.933133467
83572.9061358672
83567.9899943152
83568.2065851029
83568.1806646846
83568.0072550672
83563.9446525963
83563.8071804529
83563.8395813522
83563.8635473057
83563.4421921331
83563.3346253519
83563.0113378645
83563.0167103424
83560.3461620008
83560.0540955196
83558.8934678474
83558.9483893525
83558.9314018246
83558.6293072694
83557.3065092483
83557.352355632
83552.5326747834
83552.3901310915
83550.5391448335
83550.6792255016
83546.4475974357
83546.7482679715
83544.5803433889
83544.3208666953
83540.0756422077
83540.7811992202
83537.8469097019
83537.1975032988
83533.3786590059
83533.9874262477
83531.2827645494
83530.4911356072
83529.048407125
83529.9582644827
83527.0081173522
83526.5565415877
83522.5758073426
83522.3826600572
83519.0057432243
83519.2880515658
83523.1672733751
83523.0940863521
83527.2431119145
83527.7176504758
83522.5324158458
83521.4543040496
83525.5642264053
83528.3563505278
83524.7553642819
83520.8720729096
83516.1684328144
83517.5119865903
83540.1794498777
83526.6870440271
83520.4936751898
83511.0130022353
83532.1138295004
83524.4841297259
83521.1646819814
83515.2974798639
83520.340842345
83528.1390663736
83516.0116050603
83517.1086218414
83509.6310744246
83518.4825307426
83506.3180624142
83500.3255090141
83485.9560715091
83484.6876140262
83483.1238048798
83479.2156489489
83465.9353001612
83462.7808419009
83446.4076275569
83447.1364621827
83435.8299682052
83436.0322817361
83450.4648091418
83451.7360562103
83436.6149886801
83432.0406306984
83433.0419932311
83427.0160316845
83406.8536170163
83410.8578312116
83405.9830929655
83400.3014553476
83368.9042529605
83367.2033596571
83346.1499367635
83345.8091722106
83332.7935976338
83328.3133774545
83303.1489541236
83309.8492373936
83308.2339421207
83307.0278288203
83325.2292844434
83302.6438189247
83295.053769625
83307.8712653379
83324.2157059398
83309.7678460589
83300.6957405524
83310.8083266717
83301.7353797392
83293.3019651128
83288.5423079928
83299.9830891437
83291.4101682517
83281.4372054245
83272.9469949004
83279.067467654
83291.6347206302
83285.9070119817
83312.5833221246
83322.1923633846
83320.6520672715
83329.7562344361
83326.7872159159
83317.0197259262
83315.8731542611
83316.7670016014
83353.8016531871
83354.032327801
83347.3880458964
83347.7054242132
83341.1486178571
83340.8652148394
83334.2485774362
83334.2964253542
83380.272399258
83379.3354874236
83414.6054925913
83415.7466378809
83442.1174836374
83441.8294069813
83444.7875428513
83445.0592438378
83452.8613445989
83453.3680668333
83459.6273820196
83459.6734553498
83468.0835410291
83468.9629038785
83473.9515192489
83473.4041271946
83482.151624247
83484.9817552266
83483.9111033125
83485.4153612518
83488.3504135356
83487.0542675693
83478.0153002365
83479.7046307027
83483.7177505815
83485.2159301728
83482.209961236
83480.7885624873
83467.7436590845
83469.5268247654
83473.1026118033
83471.3531388293
83481.6789304781
83482.7981719268
83496.502644932
83495.7819942426
83513.6041588157
83513.8737788299
83534.892148381
83534.9996510161
83532.6770778461
83532.4006458992
83559.8805106951
83560.6349962942
83590.9915909338
83589.5929345492
83614.2614854512
83616.2620287455
83639.2323035843
83636.5479013017
83648.6639441591
83651.6086164063
83671.8549530028
83669.625173733
83673.9473408688
83675.9815089721
83685.4331450047
83684.568163189
83688.9872818609
83689.3880580362
83685.3026218891
83685.0796210202
83683.9338602108
83685.4750345065
83683.6125344625
83682.2334237226
83675.8857622473
83677.7921264636
83671.2333263423
83669.7999240567
83665.3678492231
83666.5200542801
83656.0089682688
83655.1751760082
83649.4659446143
83650.2423685859
83643.2181060986
83642.5716119947
83633.5047281312
83633.9161640615
83626.5329414606
83626.1856713178
83621.056760746
83621.4207302818
83614.3343000009
83614.0951627858
83607.868090851
83608.083184831
83601.3683558027
83601.2660092286
83595.2845705924
83595.3753517035
83589.238569583
83589.2132266867
83583.4858698117
83583.5243329948
83578.0344953703
83578.0495968712
83572.8996574266
83572.8691905015
83572.4767015563
83572.531133674
83567.9559029083
83567.7596645176
83567.3168897517
83567.4583443936
83566.7998996731
83566.6324027908
83565.7655028895
83565.8614626803
83562.1502937657
83562.2368332964
83561.472959708
83561.4644253426
83560.3541079277
83560.4452645036
83559.4508158817
83559.4384805404
83556.7790404738
83557.0539357495
83555.3709411729
83555.3347282288
83554.6416552395
83554.9262078382
83553.1880030748
83553.1211323101
83548.391378765
83548.6712876646
83545.9521874925
83545.5761962724
83541.6738044776
83541.4179818527
83537.5693830402
83537.7817299952
83532.6312238935
83532.524773137
83528.3763968296
83528.9580541612
83526.2003936321
83525.3724817353
83523.7774596379
83524.8450849716
83521.8354644289
83521.000107907
83516.7455960462
83516.8767555408
83513.3172393386
83513.8984394029
83512.2707643822
83508.4449684409
83513.9647071258
83514.6137037905
83517.8837730484
83517.5500960413
83511.2640168919
83511.3272177082
83505.9660935231
83506.1231640723
83509.0488324167
83508.3230314956
83501.2631552528
83501.6758907087
83508.5076911882
83509.2317584058
83503.7656283649
83502.1358468806
83510.2780258371
83515.3538750142
83503.537527208
83499.7410150199
83493.0454923458
83498.8131580918
83489.7678259747
83486.6234575525
83478.4448389571
83489.0758344553
83466.2921965512
83468.0240000405
83452.2181488679
83455.4708607938
83430.9428367893
83429.0713519241
83414.5295141091
83416.1764316128
83399.2801474154
83396.5114445335
83420.5629132476
83423.0313691341
83415.5061672395
83402.2920767282
83372.7586415509
83379.103060352
83380.848660096
83356.662250347
83354.5105072167
83330.7247008695
83333.9646883549
83323.9145610498
83323.2213545214
83305.9098741231
83302.526403934
83307.3529206376
83301.1301587583
83297.7358984776
83306.1188778278
83288.213927913
83284.5816471084
83278.8233247659
83280.4955803525
83281.742498049
83276.774896877
83285.9309674786
83291.810812868
83286.1619080863
83280.4343245496
83277.2469702756
83283.6502193967
83278.5857279502
83272.3295122474
83265.4022804308
83266.5864757744
83261.4982316543
83261.7096387252
83256.8695231434
83256.7287305333
83262.8051289954
83260.2655736468
83264.1677837674
83265.4301878818
83267.5908835956
83259.8268740548
83255.4463329006
83251.9816239471
83286.7424178976
83283.2709551343
83270.0266298464
83272.3524742175
83253.1687530465
83248.674499476
83228.3714191813
83232.902807831
83283.7569479862
83280.400388151
83265.7643767005
83268.6372800641
83250.5394450025
83244.9622995904
83221.0393657164
83230.8043280527
83210.4856657139
83199.3360558421
83181.0440205175
83188.8154942659
83216.4452516208
83210.5063057368
83207.5815348497
83209.5388794851
83207.2078529219
83205.9741093621
83206.1816900294
83206.937868841
83207.6538052277
83206.9726844817
83278.7701383335
83280.2508410169
83281.0796055049
83279.7120755348
83283.0042669249
83283.3770328547
83308.5105984962
83309.4991718943
83315.3834461846
83314.8410307232
83324.6889956323
83324.8264833286
83337.9069568845
83337.6427880146
83354.7057855551
83355.0294281859
83376.4186305479
83375.5320738253
83398.4563335525
83399.6289413118
83424.9944137581
83423.4250986281
83446.6595601156
83448.3738057477
83470.9776120192
83468.9814068754
83486.7554278359
83488.7776590964
83504.7337672744
83502.7031004205
83514.0733398543
83515.8683831956
83526.7134254134
83525.2237059706
83533.0454945494
83534.0309339881
83544.8447928536
83544.435127994
83557.443597225
83557.4228343405
83576.0411783806
83576.0591396954
83600.8778994589
83601.3339232478
83623.9589003997
83622.925883127
83640.5985766853
83641.7569450648
83646.2823551445
83645.1945165291
83645.3497967311
83646.2328396936
83640.2921682864
83639.5605289403
83634.3229986507
83634.9393911997