/*--------------------------------*- C++ -*----------------------------------*\
| =========                 |                                                 |
| \\      /  F ield         | OpenFOAM: The Open Source CFD Toolbox           |
|  \\    /   O peration     | Version:  2312                                  |
|   \\  /    A nd           | Website:  www.openfoam.com                      |
|    \\/     M anipulation  |                                                 |
\*---------------------------------------------------------------------------*/
FoamFile
{
    version     2.0;
    format      ascii;
    arch        "LSB;label=32;scalar=64";
    class       volScalarField;
    location    "400";
    object      k;
}
// * * * * * * * * * * * * * * * * * * * * * * * * * * * * * * * * * * * * * //

dimensions      [0 2 -2 0 0 0 0];

internalField   nonuniform List<scalar> 
162506
(
0.0150874390972082
0.0150914127688689
0.016298483885982
0.016406158255819
0.0167317965152065
0.0165728464369382
0.0151721391407515
0.0151278935753434
0.0164311380839633
0.0158106852306262
0.0153535826338924
0.0150314500152123
0.0150685530402853
0.0150490519603819
0.0150132797848617
0.0150111138354352
0.0153245830312514
0.0157351453906064
0.0150449010785794
0.0150920090625725
0.0150561205732692
0.0153412033421311
0.0157499525722669
0.0158004576976797
0.0153758461663351
0.0153291032447179
0.0158118071231033
0.0150103045149205
0.0157516778924988
0.015309274792674
0.0150027642280146
0.0150029879835626
0.0150132951088629
0.0150007574184672
0.0149985332964562
0.0149980734717916
0.0153027721165324
0.0157509025751124
0.0150006771342263
0.0150757573965792
0.0162854797054244
0.0162868555370509
0.0150717860497462
0.0151160477074735
0.0169421921430194
0.0169512062954846
0.0151187174325956
0.015257089439824
0.0173879881226284
0.0177210771643188
0.0171052316870755
0.0178912169179964
0.0188732854875982
0.0183098468168772
0.0153536487258142
0.0153030156664837
0.0179966015071034
0.0171592115189988
0.0152291561742692
0.0153346206523036
0.0172187176846711
0.0164794372941238
0.0151769320105261
0.0150524428934628
0.0150163641658698
0.0153484057928151
0.0158681895591543
0.0158296425048909
0.0153008632018194
0.0150080532794952
0.0150285239198109
0.0150161658322119
0.0150051484849635
0.0150106216687088
0.015028831353259
0.0150320589881145
0.0150755616661171
0.0150740555132894
0.015149609912594
0.0164186910235708
0.0164364999029723
0.0150885508975503
0.0150133172853131
0.0150029102710899
0.0152981225986867
0.0158259488969347
0.0159353880111347
0.0153536402870199
0.0150018570507194
0.0150105516375035
0.0150023435442818
0.0150017027353068
0.0150002012945649
0.0150016828520135
0.0150056209532026
0.0150010582044235
0.0149989928599935
0.0149990689888925
0.0149995954146074
0.014999286052687
0.0149990320161118
0.015001283094659
0.0150010904572453
0.0157505477482909
0.0153026016366198
0.0149986562799313
0.0150033817298436
0.0153088190975472
0.0157507503201947
0.01501093781086
0.0150707165399963
0.0162848838486028
0.0162846427368285
0.015074009317482
0.0151145740909375
0.0169491020014547
0.0169507415397468
0.0151214001421853
0.015160964318678
0.0177427037873959
0.0177086239654636
0.0151609522711985
0.015155959133763
0.0176894549105563
0.0185155171597905
0.0154778205587195
0.0157733201676194
0.0193271370906398
0.020135759393016
0.0187404994827203
0.0197544540922157
0.0212819426982186
0.0206036954531141
0.0166403925323291
0.0160702667103575
0.0201731996069662
0.0189447534319824
0.0155807286082155
0.0154594772981174
0.0192317030421346
0.0181480314752179
0.0153564277865112
0.0153190799507672
0.0180739345235724
0.0171542766459285
0.0152749450260791
0.015143795560661
0.0171857342954722
0.0174783207665246
0.0153348755758767
0.0151510202334367
0.0166207396017625
0.0166981206380557
0.0151203417000817
0.015008062151457
0.0150015650142237
0.0153820114727822
0.0159814353900332
0.0159210451699721
0.0153476059793302
0.0149991336659143
0.0150044505093823
0.0149999909091756
0.0149998026459061
0.0149990192377059
0.0149973533860347
0.014998135784088
0.0149992987428053
0.0150004420002869
0.0150013907594603
0.0150060220777469
0.0150015105687067
0.0150035941227382
0.0150140248815057
0.0150497361346444
0.0150141269979013
0.0150119421906773
0.0153238174746607
0.0157333456464496
0.0150455765284251
0.0150882445125058
0.0162948717498461
0.0169447235040909
0.0151167663657073
0.0151124810786005
0.0169381684201209
0.0177001613676134
0.0151561212780938
0.0151529585077593
0.0177391641294532
0.0186637953083603
0.0153745903790423
0.0153852804137361
0.0186716588689382
0.0185900428825695
0.0154163161063813
0.0160095195838797
0.019738279589003
0.0195753901130807
0.0160847634848279
0.0162791165105975
0.0199770505335878
0.0209296194314041
0.0172501241506637
0.0174641958935996
0.0213908492830777
0.0215300283240007
0.0172732819887311
0.0165755349939641
0.0205513369405747
0.0214115020122367
0.0167620229269806
0.0173597809780791
0.0228682781625096
0.0248020318655601
0.0179857571360526
0.0186080382935767
0.0246889586782023
0.0251688327311832
0.0290172235336576
0.0266329405260471
0.019264096207206
0.0190595738216051
0.0264465858657132
0.0258198806649815
0.0188989938859848
0.0186105052673586
0.0233789968474672
0.0263199225611653
0.0251224328232557
0.0234564370292819
0.017816471531245
0.0218783281566233
0.0241518063460351
0.0228177509942991
0.0208574485893592
0.0173613287966849
0.0224802777933731
0.0223283046013552
0.0170298672331863
0.016241503331962
0.0220604335656229
0.0205338637251983
0.0157261693684103
0.0154750886038155
0.0204120891063372
0.0191503140535204
0.0153652542568834
0.0152161942718923
0.0191479056737125
0.0180896390811549
0.0151790824131289
0.0154001181837714
0.018588971488587
0.0186843095400763
0.0154148985815403
0.0153323191878104
0.0175659480515101
0.0173564395049984
0.0151140808660012
0.0150459159149814
0.0165890937039258
0.016584409047318
0.0150512509639985
0.0150065873416025
0.0159179876310378
0.0153470335852367
0.0150000943395312
0.0150001575539685
0.0150015699879197
0.015006562364622
0.0150010100502848
0.015002238423531
0.0150047769886284
0.0159757601349083
0.0153804536179589
0.0153517583743823
0.0150004196150362
0.0150096515392202
0.0159306628892306
0.0166115381246698
0.0151527118569442
0.0150890460867517
0.0164278975190492
0.0164136154975745
0.0151510045600569
0.0150280514300724
0.0150086071122061
0.0152998121141886
0.0158276027351322
0.0158213280736751
0.0152968923354265
0.0150033701673845
0.0150136366969521
0.0158641265859053
0.0150517624952602
0.0150157876273306
0.0153471397960468
0.0153527039809055
0.0150309246282428
0.0150675199342388
0.0157898275569139
0.0164049929751671
0.0151417074440452
0.0152427097017077
0.0164323687444123
0.0166318910067188
0.0164490094761684
0.0157543623142403
0.0153310145024533
0.0150325458921421
0.0150695410227405
0.015762125556335
0.0153310696176488
0.0153751731103976
0.0157680017815236
0.0172587857710811
0.0176110757739834
0.017129386596422
0.0153430331951753
0.0152482982788627
0.0171287183426501
0.0179579893366973
0.0153269030961263
0.0154393944906287
0.0179093193166539
0.0187463939903318
0.0181667053798347
0.0192067892922127
0.0199514232210184
0.0187478808192071
0.0159052123969153
0.0154942705174873
0.0184965162632176
0.0185731559583795
0.0154064559909479
0.0159948201970716
0.0196867419415093
0.0198426128423447
0.0159388608487392
0.0159495901613779
0.019863794428465
0.0217735400876005
0.0168017795920699
0.0174223623387583
0.0232503774387497
0.0255984763323916
0.017868103750461
0.0177950933929356
0.0249949334322449
0.0277450432814171
0.0192015413915973
0.0193824665197921
0.0272004247238023
0.0265268802309743
0.0195651287734231
0.0193424724724563
0.0284011078098402
0.0325053627438039
0.027406344828668
0.0297492808572566
0.0357777910553298
0.0303552767123708
0.0198056909302632
0.019335269145834
0.0298749227441411
0.0279419570770744
0.0192184777191614
0.0190448961056199
0.0267174618703212
0.0253637865492762
0.0185727252728747
0.0180212460875309
0.023629147524492
0.0232634126296923
0.0173841084558552
0.0172256303725465
0.0244849680422965
0.0239530741329939
0.016820687076397
0.0158352528080161
0.0219187802377417
0.0218219367572123
0.0155142726940843
0.0152821416690352
0.0203790141842589
0.0215500905201423
0.0155260638393885
0.0154627106511909
0.0199338682537892
0.0200328497931664
0.0154888386867103
0.0152220926491343
0.0193160348199681
0.0182610223851727
0.0151697782159256
0.0151752803671147
0.0182537678802718
0.0173510508826922
0.0151195091466873
0.0153352820876724
0.017553718646008
0.0166888424118515
0.0151252793852878
0.0150475501019871
0.0150072242536653
0.0150113891798765
0.0150051974578652
0.0150040797137231
0.0150039377179453
0.0150020932658277
0.0150443774527933
0.015023056464257
0.0150545002853187
0.0153358213069897
0.0174643462270056
0.0171728949925391
0.0151411149931363
0.0152759647604877
0.0171447694328842
0.0172068334752696
0.0153372611153328
0.015362206943286
0.0181292431509274
0.0192001010697124
0.0154766085839553
0.0156204751668605
0.0189000978127248
0.0201119792256507
0.0161504159364269
0.01671603070401
0.0197597897992489
0.0210513020237332
0.0204362140906246
0.0222383306056224
0.022547567917192
0.0208758850714075
0.0174712872389451
0.0173139497060198
0.0208576200265036
0.019912895346336
0.0162678448555301
0.0165699691598611
0.0204830280378935
0.0213622290523528
0.0173856471036794
0.0175366778750038
0.0212830970961246
0.0218425024893813
0.0178844010957797
0.0233641636231375
0.0238260250405488
0.0259616069083201
0.0233868643792281
0.0188735988997873
0.0249824772008393
0.0259600431978652
0.0193759486150175
0.0197052461636593
0.0266002703977758
0.0262508169281834
0.0277917633885183
0.0250351447392697
0.0199078298827438
0.0191453501158801
0.0244449908649478
0.0246512944655383
0.018498887152646
0.0180747150146456
0.0248510460900575
0.0255004167766348
0.0179941647071721
0.017887217139486
0.0256342994580722
0.0257125858114237
0.0178795262509923
0.0194848798374876
0.0287972565300892
0.0285716843988118
0.0194427282198823
0.0207606725352603
0.0306558501907881
0.0297620628841731
0.0204687089351795
0.0203390032804109
0.0296189219707841
0.0288376360757635
0.0203686163589952
0.0199481565696953
0.0284545784711695
0.0294753749781515
0.0204635719376361
0.0211950945923706
0.0333769247865624
0.0325852727995331
0.0397638328682665
0.0323809377620385
0.0201647403637422
0.0194864219161017
0.0318907392512297
0.0312189848556781
0.0192938647990337
0.018995256907931
0.0294606782760556
0.0273261159461989
0.018877956283537
0.0179840220521871
0.026195040662174
0.0248833432970501
0.0176793448496094
0.0168145563015929
0.0160753968475248
0.0154545342749881
0.0155063445037675
0.015702532201941
0.0164471325973395
0.024043856567512
0.0256184831099233
0.0165368345840318
0.0164867253109779
0.0252939220597772
0.0248925945097123
0.0166458296959208
0.0166026733893929
0.0246070824461507
0.0252967004733643
0.0175138042332153
0.0174566809173834
0.0255175739407998
0.025925653972773
0.0174757768873149
0.0180518480242944
0.0264805659824636
0.0260118092877432
0.0181220081754592
0.0173172314583776
0.0246177971249506
0.0167208874864128
0.0185779683168044
0.0276981888154322
0.029508296375996
0.0195213173628705
0.0190338527655851
0.0285418599135367
0.0273944303077346
0.0177885687083085
0.0167503251780285
0.0282873628943436
0.0307795669245448
0.016326867674208
0.0162197299380095
0.0281168241121347
0.0256235515775787
0.0160800074083281
0.0156150740356539
0.0234648203333531
0.0235578267671275
0.0156432108255998
0.0155555284749749
0.0216481187148534
0.0205352050976799
0.015273201483469
0.0152784673848248
0.0205195976388595
0.0193056342482883
0.0152277471581005
0.015487824433603
0.0199975251491817
0.018664478137192
0.0154168670655706
0.0153956891633647
0.0185668852295911
0.0180698092195303
0.0151683226674355
0.015317975947591
0.0180564552731541
0.0191197145481137
0.0153593255610475
0.0154570221726012
0.0203616503684984
0.020482379070638
0.0158015088511081
0.0163480995392855
0.0220342783014614
0.0222551867321986
0.0171528514310395
0.0181996601387718
0.0236993779983089
0.0251535501024281
0.0190976503908664
0.0196242791381256
0.02752043798964
0.028275318997559
0.0199960346374001
0.0198438309781994
0.0271622991423394
0.0282943013886828
0.0208001993216448
0.0208305508106544
0.02892935607686
0.0291534528971977
0.0202658035941061
0.0207799895742798
0.0308081720368418
0.0320600804787703
0.0371262142513271
0.0323585688449719
0.0225348510703349
0.0228268786812284
0.0320678297116715
0.030744389693849
0.0223625351670481
0.0213940252518824
0.0291860316905076
0.0332554433230749
0.0296504083075421
0.02826485710499
0.0308629642028802
0.0274102038205376
0.0213039923981282
0.0208221527234762
0.0272705623996489
0.027326378166687
0.0200891232658459
0.0195524920632086
0.0277481161670296
0.0285464783507854
0.0195767334649271
0.0194987439741082
0.0287407132953912
0.0309649790902472
0.0209330840801656
0.0209619991218448
0.0310378654758397
0.0309645325742596
0.0208572418907335
0.0208550608391686
0.0307303135658485
0.0339658831635925
0.0228334182984666
0.0226939263344235
0.0338457560464363
0.0328953901209678
0.0223011691476012
0.0220334653285389
0.0325182826763866
0.0313468176523331
0.0214770701830394
0.0205905514865133
0.0304855152680122
0.0325569772246561
0.0211745290062248
0.0214194049415497
0.0352185181096873
0.038035173571266
0.0216600701285956
0.0215243390347259
0.0383290837952336
0.0356889002705265
0.0438694641724206
0.0344404968260424
0.0204836985706541
0.0196442637701536
0.0340502265610266
0.0338509027556983
0.0194459624275135
0.0190919554165676
0.0317740238065471
0.0301327359822244
0.0184918464490346
0.0182069325794102
0.028104804075404
0.0171911856256852
0.0164979615448372
0.0162089536830858
0.0162998213291308
0.0157435725132856
0.0156687587937284
0.0156027909059579
0.0155605928346812
0.0153306165540849
0.0152787483917742
0.0155795824770375
0.0250896404062867
0.0234639850196465
0.0154392896180862
0.0153374939149822
0.0219274192333648
0.021903069056188
0.0153350794809751
0.0156238751661612
0.0234459119532073
0.0215816577749643
0.015556118100214
0.0154936164923903
0.0214793734759957
0.020331569975073
0.015252134716867
0.0155952002915347
0.0217356284875049
0.0218274187142618
0.0159746491630996
0.0170583915800959
0.024019586794021
0.024579532960816
0.0176644159829112
0.0174957109270178
0.0232195566550896
0.0250052870765987
0.0179216795900665
0.0187671827706937
0.0257187211321535
0.0283884986471726
0.0189356693116157
0.0200881119480312
0.0311460708194346
0.0320966064022842
0.0206815107258793
0.0228925783161907
0.034903857830462
0.0399951184768483
0.0334740404577852
0.0353284000990848
0.0444291701683101
0.0387619101214185
0.0232286416411797
0.0240054341291914
0.0387730918172674
0.0359847893617589
0.0247581817719347
0.0245317674516418
0.0357357653379333
0.0371849721593424
0.02477694786834
0.0255303688739817
0.0378638298820673
0.038049057538852
0.025206846450041
0.0254500933149877
0.0384528916616651
0.0400758164884831
0.0257832772679659
0.0257909966539027
0.0403097021586694
0.0409333686252373
0.0258387084149805
0.025823471464576
0.0408638891059135
0.040623245433845
0.0258210306281077
0.0256594625522618
0.0402711807504571
0.0395153790874921
0.0254669423548695
0.0251888521538015
0.0391902822410775
0.0385851644282048
0.0249055414452508
0.023773811890653
0.0375419701310957
0.0347207568142566
0.0223596767837304
0.0227071280382739
0.0390269382487903
0.0439818874146635
0.0230630001693895
0.0234914662635382
0.050632922160875
0.0411928119893622
0.0218397863857293
0.0221185066918299
0.0451573109046101
0.0443667646324564
0.0218397825360602
0.0207980610191572
0.0367267406973816
0.0487827622824651
0.039341789049317
0.0431175911642728
0.0537894438419951
0.0395161717123366
0.0211039158953821
0.0200990651902607
0.0390736132835008
0.0364306970505156
0.0197923996031861
0.0196487538899656
0.0367492780524057
0.034338641292503
0.019215812260731
0.0186247214381036
0.0324405745052248
0.0317556183486384
0.0192401118393305
0.0190258355844044
0.0294919538052468
0.0171752255220805
0.0174010246814768
0.0168659715600845
0.0157772861037578
0.0158367051185163
0.0156464085408328
0.0160433625254333
0.0309698946481887
0.0282547011679248
0.0158909650314568
0.0157690951687449
0.0257858542659763
0.015387053845391
0.0151976336434487
0.0151919416912887
0.0154380791255378
0.0233957222870973
0.025582059880897
0.0157144679199039
0.0156972851716804
0.0255071388439436
0.023412370333704
0.0159671480448806
0.0164559232433172
0.025927341374048
0.0251552513625708
0.0172711666723671
0.0178681026091905
0.025611382049628
0.0261987822723958
0.0185439442540087
0.0181114638161943
0.0262496549932032
0.0269922583852919
0.0182037774783969
0.0184364453571234
0.0291532245879804
0.0310284883786782
0.0191844262011173
0.0204274172021552
0.034878571094411
0.0332484261606131
0.0208238376533426
0.0209601959935894
0.0354519367326356
0.0375523988022052
0.0484504652768494
0.0426663449464683
0.0235213280357769
0.0243902161176203
0.0436378168050576
0.0412214332165694
0.0259722111933541
0.0266326615661271
0.041705341561386
0.0449838985204134
0.0267286578898335
0.0267402895948943
0.0462866066850227
0.0466984541871752
0.0268712451990097
0.0273787047568676
0.0487453080392467
0.0493050460051937
0.0271609507200613
0.0274758313512108
0.0506407493962832
0.0511923352867172
0.0276180961025186
0.0280105585782928
0.0527520606696954
0.0545384941561443
0.0281919210158605
0.0282390285497177
0.0552517357222268
0.0553562327632041
0.0280878118347938
0.0283714655524774
0.055899810883892
0.057036162059713
0.028371421497953
0.0282830014158012
0.0570817743653391
0.0570158334807674
0.0283413651811072
0.0283475269850965
0.0567010402881668
0.0562768244083506
0.028470511730442
0.0281863419621853
0.055481405603871
0.0553108707631381
0.0282067592555603
0.0280625407543446
0.0542367832750142
0.0532807735854899
0.0280080573459355
0.027647118069662
0.0518298466093324
0.0512974820314498
0.0274711129845681
0.0270999940574736
0.0499679356893823
0.0491097245532741
0.0269044945116342
0.0262889552713431
0.0473292334933357
0.0471921243592545
0.0260927419565354
0.0259767273319295
0.0417890083768885
0.0432815592020414
0.0265931377306162
0.0267550483264779
0.0436444448433452
0.044259451547048
0.0271010936938775
0.0271927532102384
0.0442701081962554
0.0450860834191043
0.0275582969185867
0.0275810754095019
0.0455803685288705
0.0462482723469378
0.0277748321823809
0.0277190118782787
0.0462769905225995
0.0467541816603775
0.0279566132186882
0.0278542257793595
0.0469095055295243
0.0471627364560393
0.0278711500323323
0.0278386566734646
0.0471532872269024
0.0470922123053027
0.0278767384698932
0.027842344620807
0.0463598172089581
0.0460499842788549
0.0276515076416217
0.0278114118089885
0.0460365921294473
0.0455246709057054
0.0277069570951481
0.0274932222318714
0.0440530371665754
0.0431855762785366
0.0271221293575513
0.0270595387958643
0.0430084708298072
0.0423871335074276
0.0267624679250854
0.0270878323602174
0.0422936753511248
0.0409174118091386
0.0265847658593721
0.0268267909705635
0.0228666244211161
0.0204831516441287
0.0179136617347423
0.0173706132280788
0.0166260471874558
0.0164761787772769
0.0159051555294074
0.0157882130192558
0.0157547297203517
0.0154965142505163
0.0154185119835404
0.0158621797404586
0.0279425141192041
0.0281004200864165
0.0159499655844408
0.0161467442378786
0.0309564003487862
0.0286631528104369
0.0167893741513044
0.0173485884474772
0.028446740806594
0.0268331304485858
0.017199834915052
0.0182357215555355
0.0278491391046564
0.0285531623428222
0.0189508056391458
0.0184207790409314
0.0283357991457536
0.0305927979852669
0.0186094947510167
0.0186833776714753
0.0313467336354172
0.0338758873229244
0.0195249849785417
0.0210710913705234
0.039267079256094
0.0374820622131158
0.0214945633865763
0.0246656874538095
0.040304609475077
0.0534828379820421
0.0468950637186748
0.0496478080280984
0.024836288069032
0.0264238680652387
0.0481623590697433
0.0522989795068139
0.027122075859682
0.0281846204530948
0.0556881112184554
0.0583906511135428
0.028278218551172
0.0282635962485249
0.0620090841513736
0.0630290772751591
0.0275919678473699
0.0282405117002317
0.0656807439635278
0.0667820287829668
0.0283254589275341
0.0288076713269613
0.0692602254868833
0.0707499551338858
0.0292619226634938
0.0297809050602863
0.0729086159846598
0.0744286568284486
0.0300753025177183
0.0302749834730284
0.0747873380975966
0.0750368833714434
0.0303508821024319
0.0308191443772051
0.0760588439445821
0.0779072056801129
0.0307853777185594
0.0307005208830655
0.0777581176837987
0.0775106893768112
0.0307966605623521
0.0307014403066608
0.0772550764868512
0.0765368794402892
0.0307666663686359
0.0303570898193737
0.0755541581034588
0.0754218962572386
0.0300938448109955
0.0297817998342685
0.0746016819037843
0.0733242088191266
0.0295153950605138
0.0290726588542307
0.0711238874409779
0.0690056374094577
0.0286244109656799
0.0280788124187721
0.0664995452655125
0.0658174687714739
0.0277158941237661
0.02700494196242
0.0645378821937142
0.0568815212492488
0.0259448210058639
0.0256914984241107
0.0509732446170385
0.0454918029430201
0.0242384165533043
0.0247445725095389
0.0548965986552812
0.0675662151841316
0.0252601200169735
0.0258270277835711
0.086802512352366
0.0592058315548282
0.0239136875514107
0.0243361325864274
0.0713569731089001
0.0490520642704077
0.0222671631858525
0.0225046756400362
0.054856576248917
0.052108115069162
0.0220987533640549
0.0223432823333393
0.061797837546932
0.0483974486680928
0.0598746806478048
0.0429835648477692
0.023310094052218
0.0218687452449054
0.0419953977891137
0.0433378563259392
0.0215366569457496
0.0203276412966551
0.0412119853665273
0.0373051320798184
0.0193462394181545
0.0187379174902494
0.0350425705770654
0.0342981758372768
0.0193166065169171
0.0197842990525017
0.0350903990317737
0.0321354288060044
0.019758024167769
0.0191690839746245
0.0310842093555428
0.0289889517959082
0.0176047649992037
0.0176600239808088
0.0306993233561012
0.0314617927334669
0.0172930312255956
0.0174454611719863
0.0342377446849984
0.0342411222780708
0.0162298488920883
0.0158439356496651
0.0289010040066333
0.0268217590864299
0.0157262342248021
0.0157269316762598
0.0266773365350711
0.0249730279777446
0.0155782889948718
0.0152760602221642
0.0153773241025251
0.0155503259982911
0.0160449847952931
0.0305894611186198
0.0338458793912258
0.0163104970409764
0.0175232902886523
0.0342723477695005
0.0317818471171054
0.0174971790373465
0.0174372453405838
0.0315689905699548
0.0298413509182306
0.0173228906208731
0.0185185616080869
0.0329236112589534
0.0303368359440107
0.0183897674447709
0.0191055383645152
0.0312267911476348
0.0341812948105844
0.0192163516140125
0.0187783033462238
0.0330326883794344
0.0337792115575602
0.0189028572963654
0.0198506274133787
0.0371118797429864
0.0442184966107803
0.0214188212064981
0.0217951595346783
0.0424332509300134
0.0475208236654789
0.0675389722245107
0.0574442469207046
0.025409791589522
0.0256046436183477
0.0661041565278462
0.0699280478724447
0.0273249380986499
0.0280502239563559
0.0887210203966077
0.0968817028404707
0.0289186545336325
0.0324269309535031
0.135621525350426
0.136482526901976
0.0326225094711505
0.0339606277768107
0.142814780724329
0.156362247589835
0.0381186068292619
0.0444992898814839
0.156102036237687
0.17940615831369
0.0495292795148974
0.0505872142079183
0.187631200403018
0.191825521019473
0.0503092229274445
0.0494576014523589
0.192330302445751
0.193124654843003
0.0495908010672385
0.0492168693195778
0.191532082236621
0.190628201675805
0.0496950096150909
0.0492894402939074
0.187989221377911
0.187458737159313
0.0497382841672687
0.0494112274342653
0.18478206106759
0.1853173426247
0.0498992961894579
0.0496292297450097
0.183925511453461
0.185914608135625
0.050236648511589
0.0503084254485046
0.186155171841852
0.188882511154056
0.0508884606183913
0.0506280125126824
0.192950421377317
0.194364519675525
0.0506597333681361
0.0503862952314976
0.19241387199099
0.191567921286467
0.0505580999624248
0.0508856831610233
0.191392531163236
0.190439809190348
0.0504705324706296
0.0506842005283678
0.192241019979458
0.19061013230845
0.0502722216008796
0.0508336616685182
0.191749532579813
0.190049849367946
0.0503204061637098
0.0504614405725593
0.19073939471446
0.189690580673684
0.0499221011061758
0.0502370091236306
0.191950251445628
0.192250837406166
0.049770543792777
0.0501548562913889
0.195589607407811
0.196983730067315
0.0496577269148914
0.0503026416888991
0.199925083923253
0.200247331908705
0.0504425287499145
0.0514996557500746
0.200104671822571
0.19544161408422
0.0517279054434997
0.0504517668469973
0.186130592941708
0.16086137375344
0.0452342459982808
0.0393194071596219
0.162126820754883
0.152377940201105
0.0354807338666714
0.0323814978674254
0.149939523958323
0.101704269967774
0.0274128335137455
0.0267462257104415
0.0843060361106867
0.0732696658262792
0.0264234933265738
0.0260109137568156
0.0635964378505647
0.0774887837231054
0.0275443300878397
0.0288577827894225
0.0940170003148495
0.117315742522749
0.0300637536295806
0.0331155083708221
0.117358256958072
0.121590110001165
0.0371778888638725
0.0438420275381065
0.137980513781118
0.147681379251791
0.0495115546490015
0.0506689538287715
0.15324701819765
0.157593078927059
0.0509992979975534
0.0495446032271658
0.159829248643326
0.162153588549448
0.0494654557845951
0.0483644046399912
0.160766139765344
0.16158130803771
0.0490159289600911
0.0483524626285418
0.159084258153828
0.160233336365741
0.0489614040001218
0.048440980098016
0.158216143819728
0.159974448096735
0.049088641940519
0.0488176360694239
0.159373640018935
0.161237876513176
0.0494373457964442
0.0487828597364476
0.160692321895417
0.162039132294073
0.0492624828344528
0.0490097124692053
0.16064194144742
0.161547932534581
0.0494285173762032
0.0491028768124677
0.161809354026503
0.162114919493727
0.0489691849770297
0.0492355873049333
0.163585165212672
0.162768292532649
0.0491544077272106
0.0494207152968038
0.159160567438001
0.157135124269815
0.048819249784238
0.0488059178637173
0.15666926239856
0.154768941062985
0.0481451581281167
0.0485527375742451
0.156029161933804
0.154674350399314
0.0479537954265817
0.0484672257799034
0.157013956593713
0.156085245247511
0.0478872236594271
0.0485603800591985
0.15789100290044
0.156816966248743
0.0479457499196838
0.048689913587905
0.157017660779568
0.154108057321778
0.0485158495057308
0.0498070465817111
0.151890480355475
0.147816157450297
0.0495928142152061
0.0485443133229479
0.142871638264197
0.133906679074029
0.0431310386481473
0.0358556266627762
0.119086413612526
0.111056518458352
0.0414268688793854
0.0457674622296342
0.116558176191354
0.11977410944714
0.046607217899494
0.0474226599499774
0.1228505245005
0.124164167336333
0.0463525593183176
0.0471766252929423
0.127005369832009
0.126978987015638
0.04620639988404
0.0469472956249654
0.129394240295161
0.128183599177518
0.0459144706120251
0.0466740670464844
0.130089068337159
0.128033621552754
0.0459254517360842
0.0466606927206449
0.129785374503043
0.128730123263424
0.0460962556572385
0.0467980021288446
0.130329867298435
0.130993408676969
0.046751048741445
0.0473617213465179
0.13228853564072
0.135415892231379
0.0470865946097567
0.0472134658367179
0.135902999987488
0.134820797502967
0.0469559082705227
0.0470387373046943
0.134743436711665
0.134440935929038
0.0473526783532518
0.0469605224234571
0.133778073304945
0.134802292722937
0.0472492702131543
0.046707980426221
0.133714022278595
0.133824176353736
0.0474702262767293
0.046729407008515
0.132122026513967
0.132593255885745
0.0471568461421064
0.0463797543832514
0.130524631257556
0.1323383800766
0.0471660811869061
0.0463535621032809
0.130221690852446
0.132154720428018
0.0474162315924703
0.0466192713855368
0.129811582473024
0.131115402278745
0.0479611141941593
0.0472660214230157
0.128509365089785
0.127069364899406
0.0484706976918596
0.047555024023158
0.123801306491813
0.120187878703478
0.0467047701998299
0.0421077228318777
0.114359746156905
0.103580399636174
0.0379620489888335
0.0328049994084041
0.0950436226909738
0.0940353541123059
0.0306233350037229
0.0287912182509368
0.0780445554158149
0.0791290964245881
0.0294056541243722
0.0302325349499906
0.082883219390977
0.0862275753799216
0.0305628852476339
0.0392964049759572
0.108507290515185
0.112107870595464
0.0389778035995742
0.0386500537625615
0.112906144239403
0.113100033258301
0.038578080456395
0.0386700636416136
0.113196107116063
0.114410993910327
0.0389554041606092
0.0388021066558529
0.115522897944743
0.115552629179355
0.0388901514861731
0.0387290638714073
0.116108053855734
0.116709065244289
0.0388544570379094
0.0389667050841263
0.113449830366589
0.11168460047206
0.038518054989279
0.0383921198845392
0.111207829238388
0.111359844619369
0.0383186892467624
0.0384544126238778
0.110493684294601
0.108397317259925
0.0385146149868561
0.0387138859882424
0.105113259058963
0.100661470971738
0.037229760846997
0.0318419083867193
0.0938973002052935
0.0896906512734092
0.0292875145416664
0.0316636716142976
0.111307539426498
0.108085766102587
0.0307127994197908
0.0302770197911696
0.10656101512829
0.0804997367663186
0.0284496810022009
0.027582437877786
0.0665704770402059
0.0696709114369748
0.0282921026689363
0.0292342485230514
0.0852718029559505
0.0879410250786994
0.0291732698910447
0.0285241923456713
0.072839655882234
0.0742934386108041
0.0281528754839065
0.0290059781494738
0.0782922157429655
0.0804298553921499
0.0298100310160722
0.0302642646175661
0.0837280205251047
0.0855359027242461
0.0305086310832352
0.0312668957070656
0.0865397546510061
0.0868038086513182
0.0318046742243373
0.0321824064600892
0.0864568353670149
0.0864552919559582
0.0324398099724373
0.0329882670196061
0.0876247521859423
0.0896533185682603
0.0329832970796368
0.0329021339244745
0.089402956157843
0.0890754767948342
0.0330045865098001
0.0328634452453446
0.0888346899969319
0.0883186580209384
0.0328307150757821
0.032329341864391
0.0876299056987699
0.0881271053598385
0.0318370562228995
0.0312599583240816
0.0884539047857925
0.0885655516521508
0.0306934432689777
0.0300833031204815
0.0268214136930348
0.0263744973866135
0.0258525555835126
0.0252392271916843
0.0233811961030076
0.0232143039793477
0.0228735266905588
0.0225592925013404