/*--------------------------------*- C++ -*----------------------------------*\
| =========                 |                                                 |
| \\      /  F ield         | OpenFOAM: The Open Source CFD Toolbox           |
|  \\    /   O peration     | Version:  2312                                  |
|   \\  /    A nd           | Website:  www.openfoam.com                      |
|    \\/     M anipulation  |                                                 |
\*---------------------------------------------------------------------------*/
FoamFile
{
    version     2.0;
    format      ascii;
    arch        "LSB;label=32;scalar=64";
    class       volScalarField;
    location    "400";
    object      nut;
}
// * * * * * * * * * * * * * * * * * * * * * * * * * * * * * * * * * * * * * //

dimensions      [0 2 -1 0 0 0 0];

internalField   nonuniform List<scalar> 
162506
(
0.00149793542786896
0.00155234294234799
0.000102987359653497
7.8800733019092e-05
3.92611641634319e-05
9.52642407190292e-05
0.00046021873830829
0.000530892882710751
9.31985439596199e-05
6.34527304429548e-05
6.9589638844097e-05
0.000885913012513119
0.000936991976879038
0.00130187207217847
0.00293168533840317
0.00332118392380323
8.9529023186035e-05
9.28912924477607e-05
0.0013295394069953
0.000677640486797597
0.00091083450169534
7.98738102125486e-05
8.51392018410012e-05
3.87257880120776e-05
4.36014996059732e-05
6.12591281289459e-05
5.67986419424982e-05
0.00570455886847237
0.000106154950603173
9.82012933945917e-05
0.00813385334408285
0.00772210000419204
0.00496187454142038
0.0104500110543103
0.0150001158803926
0.0149413140597045
0.000100603942766177
0.000109813354512617
0.0106578744043189
0.00846682854349774
0.000113129963672808
0.000110713560277317
0.00510630339182092
0.00458293205857545
0.000110748135404484
0.000110630904519386
0.00324977677608641
0.000815473176675574
8.70917465837708e-05
4.53258110783762e-05
8.51773501398597e-05
9.13397273441436e-05
5.0079524852733e-05
9.6490664232579e-05
0.0011612336119524
0.0012820470443044
0.00010121764152002
9.79040966691778e-05
0.000863664483105689
0.00214227449414331
8.2501208844878e-05
8.17068550594878e-05
0.000955058265123093
0.000819816052926387
0.00228432777702284
8.06792027821579e-05
9.25368748412076e-05
0.000109623509473189
9.7821318642772e-05
0.00434978608707326
0.00283518703006432
0.00418243209906171
0.00593879860601074
0.003529482424339
0.00247434436252121
0.00192500791475394
0.00167943998367606
0.00334081805358706
0.00298450741502667
0.000102683100148798
0.000113684934389489
0.00530388738721067
0.00507082053297496
0.00827122771874156
0.000102931614828151
0.000112842923164589
9.99221460524299e-05
9.02209126881768e-05
0.0101063090546402
0.00566238874527511
0.0131099771653438
0.00962146504565857
0.0145334838917278
0.0125354910953375
0.00871253715731407
0.011664704870617
0.0150003104703749
0.0150014778963784
0.0150016933807866
0.0150004401562693
0.0150003373497127
0.0103865625517586
0.0109438799894878
0.000109774139312664
0.000100687872191356
0.0149430616401334
0.00731970874876968
9.82866317594789e-05
0.000107008798311548
0.00569916570865
0.00570628630073089
0.000110705146251009
0.000113663830349598
0.00931352971808163
0.00803724371859905
0.000111182647557016
0.000110077288110356
0.00788321415927889
0.00485717572149642
0.000110957327915229
0.000110721021349653
0.00380638213066499
0.00334372206582387
0.00011561719441131
0.000112466898625506
0.00230427158682703
0.00112591735367149
9.70035563411702e-05
5.41729791214015e-05
9.42760401382241e-05
8.76794213625364e-05
4.83555319221632e-05
7.64265697809238e-05
0.000744294370062198
0.000702812968110822
0.000112257082257246
9.67101312781651e-05
0.00131427053480361
0.0021954455218988
9.34318107722742e-05
8.75988629570311e-05
0.00271993026784036
0.00373733928614351
0.000107806394160355
0.000106072428538354
0.00351663600944146
0.00824548375538501
0.000106406267899285
9.81120349972986e-05
0.00480105155959019
0.00692058316788144
0.000104860770638397
0.000102389173502683
0.00802705976653936
0.0070955855547767
0.0110151529086265
8.65933897704413e-05
9.60093242109236e-05
0.000105912769319667
9.42710923759889e-05
0.0149278962540414
0.0081825691951102
0.015001114623966
0.0150007001812287
0.0150003448574989
0.01500081068857
0.0150010924605844
0.0150004687955775
0.0134274685558036
0.0142013962195005
0.00869074785900193
0.0104574369135754
0.007039246736606
0.00489618305602419
0.00126318004735615
0.00278949938794732
0.00312934319452988
9.01385577409504e-05
9.62965824990804e-05
0.00143537322985199
0.00168863706057886
0.000103017488968018
0.00011080451274995
0.00318627651213461
0.00532058569653805
0.000110969243939999
0.000111896844263633
0.00415796500529252
0.00515717878132424
0.000110580754265326
0.000108172161833299
0.00276243542018169
0.00275086650371822
0.000105272607509911
0.000108594943622172
0.00251922642461743
0.00135826057564555
8.98324023580026e-05
9.46438486692477e-05
0.00138339762693871
0.000726033407700341
8.71469310239809e-05
8.64054006217467e-05
0.000720565765666384
0.000611266361425662
8.0358828276522e-05
7.61481520661958e-05
0.000697567747564423
0.000640589309273266
7.77313852648472e-05
7.31246136000271e-05
0.000815453824643983
0.000588127926518229
5.39915665156579e-05
5.21295135298799e-05
0.000510175838112726
0.000618243509980874
6.46512392246325e-05
5.75204269608728e-05
3.32095165912017e-05
6.77559921936304e-05
0.000603934750992803
0.000540356830768088
7.23278956540412e-05
7.240626203971e-05
0.000492149180868408
0.000480891220754206
6.02981456561646e-05
3.58934920835625e-05
6.82106191456313e-05
7.44006030366851e-05
0.000383947330598247
7.05461642518801e-05
3.37078784710233e-05
3.50667986844548e-05
7.43903274961411e-05
0.000504002599457302
8.75695847908255e-05
8.46195122763011e-05
0.000561189503797226
0.000969116581764477
8.65217438087922e-05
8.63008716888826e-05
0.00153084689342655
0.00208139506861603
0.000110617183925441
0.000109308345795371
0.00293940708521742
0.00432710555507637
0.000111646013062807
0.000107227022239437
0.00703044979160196
0.00436780583801464
9.51582141833103e-05
9.55673151301935e-05
0.00442217006958333
0.00496043313368015
9.77717070980389e-05
0.000115482739865051
0.00894251712599
0.0113981272417034
0.000114554806728675
0.000113471066876898
0.0112429063056584
0.00701949768715981
0.000106435015619482
9.44094053106721e-05
0.0149281214417487
0.0147864220360163
0.0132772417898078
0.0058775462922465
0.0116694367656341
0.00941396123841314
0.0122216034930327
9.55657576257294e-05
8.70039304438529e-05
9.01436261377279e-05
0.0146876547304798
0.00536380723458308
9.95848964300597e-05
0.000103669222345741
0.00671259236827541
0.0056435009841395
0.000113321736270016
0.000102798391717824
0.00279456819191139
0.0029520133015777
0.00412982314091921
9.71562852691058e-05
0.000110734805435005
0.000113005064794941
0.000102844208013117
0.00766027562041903
0.00509333202814744
9.10188295757097e-05
0.000831319571045437
0.00235089270155876
8.14041047219332e-05
7.01137451135264e-05
0.000880449771856466
0.00101905386967235
6.37792319729171e-05
9.47446727701918e-05
0.000531938524901321
0.000455043299904847
7.79974843724386e-05
4.00560175240653e-05
9.87572572384716e-05
5.99527144988576e-05
6.40393273183567e-05
0.000927474966718839
0.000680671391039317
8.46162444095585e-05
8.28995622213454e-05
4.37521114115175e-05
3.95214586334475e-05
8.37551436786737e-05
4.57509320212028e-05
8.63678561496642e-05
0.000777672381182818
0.000875625686009289
9.75013300940724e-05
0.000103776577802856
0.00128197425181781
0.00117336340825339
9.25375318149686e-05
5.0368057433612e-05
9.53906009285127e-05
9.68423969463726e-05
5.38082129152056e-05
9.33017703423262e-05
0.00115147591061497
0.00236257913390882
0.000113797473792961
0.000106890133192843
0.00267085102253996
0.00135424778919733
9.44105450725686e-05
9.52137365894874e-05
0.00128825124933723
0.00135051840285992
9.68167232839273e-05
6.47634805463482e-05
0.000713215187186739
0.000422726209100865
5.19415571317663e-05
4.29918016129075e-05
0.000289021202437035
0.000373961620023945
4.75840546055561e-05
4.21689269939805e-05
0.000287973066660434
0.000385688921663287
4.75407809636272e-05
5.37164425632137e-05
0.000513960208419597
0.000622945691980206
6.21399099676232e-05
3.35227671372809e-05
5.22951219475093e-05
5.30173767858009e-05
3.83026315459685e-05
6.5449512289538e-05
0.000391892889662129
0.000488540444688147
6.66028081932681e-05
6.29120334177879e-05
0.000864682132281792
0.000419062569714581
5.64747152034804e-05
5.08484124633868e-05
0.000383962449171564
0.000313608054836315
5.87189123870928e-05
7.29496661412169e-05
0.000428198059240123
0.000826559801781536
8.04521177343174e-05
0.000110107849684852
0.000836707276746599
0.00131656983559855
8.93604564064797e-05
9.55054445098874e-05
0.00156195998074345
0.00262386121580788
0.000113736926484014
9.82834574753001e-05
0.0028986777191431
0.00413465298333821
9.60108325480722e-05
9.65830928026574e-05
0.00413526287776957
0.0048990381772346
0.0001151323837929
0.000114695357823261
0.00793504100762417
0.00792055635937428
0.000115011585915124
0.000114997981382547
0.00894414971235876
0.00493981320089824
9.64753256283541e-05
0.000100261009505277
0.00754360075171935
0.00319973663431721
0.00774599129162609
0.00777252338217691
0.0147374048277753
0.0119587515121345
0.0105063050414977
0.00880003852347324
0.0115706189439741
0.0134231140636835
0.0110915552621272
0.00476621753379501
9.85264823280179e-05
0.000105250258604307
0.00819974071768668
0.00341706178426765
0.000105877327795173
8.30658048231182e-05
0.00205765701657669
0.00290547049396895
8.69782010881931e-05
9.27767807578078e-05
0.00256130174781382
0.00136864679753627
9.76272716965743e-05
0.000109871238979532
0.000729946049036764
0.000824684403952611
8.52825566117895e-05
4.67738855788439e-05
7.71397735023811e-05
8.44131686748217e-05
3.39679350341193e-05
7.08163019612008e-05
0.000540616259610678
0.000635638318546734
8.54449658752515e-05
8.6107153678445e-05
0.000724604067294278
0.000668551478447252
7.98676366922904e-05
7.57764121234024e-05
0.000586174902591535
0.000545853082041703
7.63897057449256e-05
6.32721257808849e-05
0.000374524124742481
6.72113721642635e-05
3.27113647446608e-05
3.26995765303162e-05
5.57583541355251e-05
0.000389159645032959
6.15310382657758e-05
6.38161323910777e-05
0.000322630855179373
0.000411153536431317
5.45939624080111e-05
5.25705002009921e-05
2.81035923907196e-05
5.04988409366307e-05
0.000424525127539443
0.000489006329714195
5.72618516844593e-05
5.31297299285803e-05
0.00040912457392788
0.000283396711030218
4.34201964398501e-05
4.00530747953038e-05
0.000259956720293928
0.000245999340515388
3.81434294771236e-05
3.92166036534528e-05
0.000250216997220574
0.000184673074295917
3.64230206562856e-05
3.56085802423589e-05
0.000214235857068436
0.000177768896067946
2.96877292214851e-05
3.73491495740274e-05
0.000190599461595138
0.000259673163787252
3.74586827886287e-05
4.28579482099231e-05
0.000295425011120458
0.00034279269677805
3.7774773394418e-05
4.47262179536903e-05
0.000325483756289617
0.000277098031307737
4.33049250915147e-05
5.53052970125314e-05
4.28183948551588e-05
7.00676752187813e-05
0.000311978699178453
0.000380614029085621
7.36560199569363e-05
6.74571955329738e-05
0.000448670664216729
0.000507133167240571
6.27840724947305e-05
5.64017558824466e-05
0.000444787082775507
0.000432347268426685
7.55750593310272e-05
7.25315348683975e-05
0.000491299245965375
0.000494352900137504
0.000610922150815691
0.000492811420347331
0.000304284340539208
0.000435796852461621
0.000835408138763835
8.29697754494034e-05
6.56644597388618e-05
0.000577878805660289
0.000364059331649423
4.64309968860496e-05
5.11114081890665e-05
0.000461547443428791
0.000754269979390069
6.3677438716608e-05
6.79973544713899e-05
0.000474064046716201
0.000390501445252149
6.02723851562245e-05
5.44087492856572e-05
0.000333828026619495
0.00033675473368405
5.50313131069634e-05
5.30516358555262e-05
0.000499947004492051
0.000950552378897792
7.45111080954463e-05
0.000477826618132397
0.000714630131405042
7.37985846363721e-05
6.30540352523254e-05
0.000583449139326392
0.000505540255636903
6.06635784853721e-05
8.15232365877375e-05
0.000380566681788932
0.000461485712366708
9.74563382285098e-05
0.000107549482501993
0.000651551345757362
0.000664004964578184
9.36402172522656e-05
9.22747330667186e-05
0.000973684412361217
0.00178111937501549
9.22459724753592e-05
9.66595109250715e-05
0.0017303169829368
0.00305018424540203
9.71836006564132e-05
0.000114943764038989
0.00275259336519198
0.00283623816187313
0.000115303161254
0.000115422518424541
0.00519729615037212
0.00411908687407728
9.69206842162967e-05
9.57611422721148e-05
0.00440126802898328
0.00435112041366871
9.59400857630173e-05
0.000107233484103667
0.007609837782375
0.0041227964602193
0.000107786291371136
0.000112840791718383
0.00320565015793315
0.00234623087220729
0.000110581976615375
8.33151139112606e-05
0.00187463605443731
0.000896919909238454
9.17457362007418e-05
8.11813740606319e-05
0.000521341989285486
0.0002995796442721
5.48844964560843e-05
5.80988702115573e-05
0.000792201488258259
0.000560346035676605
4.65018247067319e-05
5.68052737942898e-05
0.000797934221392281
0.000585202880330137
5.46475782603345e-05
5.32590474589908e-05
0.000417857858669146
0.000423457878687001
5.4743815955509e-05
5.40122483825459e-05
0.000430726191922711
0.000389009199164546
4.96022194989982e-05
4.8278446723896e-05
2.61093941673188e-05
4.10106508559588e-05
0.000285048551799077
0.000243813197711458
4.25219268606636e-05
4.5513955518249e-05
0.000224939289919252
0.000334830018905991
3.98307018614187e-05
2.46633025722082e-05
4.25826986580555e-05
4.4918353438808e-05
2.66145336034544e-05
4.53855245792769e-05
0.000428977750096547
0.00044341736959134
5.31862313296134e-05
4.36752825676266e-05
0.000306350050528609
0.000217357545726624
3.63229155182551e-05
3.85326498375453e-05
0.000182555891013014
0.000174525519184696
3.72466926584301e-05
3.26560525893517e-05
0.000129735407625551
0.000127918462395741
3.19826963159785e-05
3.07489870162795e-05
0.000153140775729121
0.000147407349760815
3.34288596529886e-05
2.62208183980534e-05
0.000126310960044361
0.000140731887388507
2.41610584530193e-05
2.97957556669432e-05
0.000168818445390694
0.00021363704366019
3.02060934681208e-05
3.56870626655081e-05
0.000242960007143644
0.000263729574828615
4.08038811231179e-05
3.35320525881449e-05
0.000246896843760985
0.000212317823255679
3.78836925700832e-05
3.89871868731245e-05
0.000204360366252197
0.000265530639066743
4.76878175450005e-05
5.94000502264663e-05
4.76851492765586e-05
7.56689225696611e-05
0.000303378561750666
0.000370036054349365
7.98062119034341e-05
7.31497732431597e-05
0.000430592353935005
0.000575383401073779
7.03141483395918e-05
8.11289290418339e-05
0.000556360228040953
0.000439081177837164
8.01551456628909e-05
0.00037351846502505
0.000294619485762382
0.000184203520669537
0.000124820832305395
0.000137440268875089
0.00021178061102655
0.000223318792821525
0.000156913704335527
0.000281614005832536
0.000472929347466494
0.000651920705962949
0.000108931984941539
0.0001100790926769
0.000962994096654537
0.00158515114618566
0.000113294730171056
0.000113808773735999
0.0015928109717126
0.00170041918231502
9.76787193377796e-05
9.7607920948876e-05
0.00316811604460656
0.00304072637795348
9.69295464690339e-05
0.000115199369749728
0.00303805133297788
0.00171318574652596
0.000111087899820949
0.000112593274899052
0.00129359885774993
0.000935961083042049
9.50865371827473e-05
8.26659600766177e-05
0.000963414368128697
0.000411930314955416
7.35855000856823e-05
7.27846829144486e-05
0.000426044858638972
0.000409516963253433
4.15984624443171e-05
4.91320410905652e-05
0.000463947045810531
0.000444653056470462
4.79818110325357e-05
5.22919249607308e-05
0.000328460201191328
0.000287775387355395
3.93061695823913e-05
2.5873095397401e-05
4.45121293618776e-05
4.64281883628279e-05
2.9688908669642e-05
4.12229715523383e-05
0.000233914390820582
0.000200621739191599
3.53492478908803e-05
3.02147403464209e-05
0.000230020981340113
0.000189664588288095
2.84141779794054e-05
2.34393748769058e-05
0.000175234486133234
0.000148525601564044
2.27983423393232e-05
1.74635346670591e-05
0.000125630567082284
0.0001114529447682
2.2243744556257e-05
1.82586947043722e-05
0.000107185666284893
0.000108794621869239
2.2382731910226e-05
2.3279020053242e-05
0.000107669194089728
0.000106140233759249
2.29515123513876e-05
2.24725989015335e-05
0.000106183185262138
0.000107980645365768
1.82108251858547e-05
2.24185813834666e-05
0.000117405068595135
0.000135278791591804
1.78697737069627e-05
2.32408178821532e-05
0.000155082872808744
0.000189099157360751
2.53637068123802e-05
3.09050375119194e-05
0.000212808721113274
0.000181915354551822
3.07976773612683e-05
3.30190089383942e-05
0.000175303318798533
0.000160824416599789
3.89742822840169e-05
4.30108357222088e-05
0.000196517725622835
0.000204862311393101
4.97746459153647e-05
6.12239584184556e-05
0.00029289493071682
0.000347978795616096
8.32032086574297e-05
5.38945971456674e-05
6.97903864129618e-05
8.08015420827702e-05
5.87370357471844e-05
9.37036604102508e-05
0.000445887118729453
0.000548298481218969
9.57802406745775e-05
8.750878822275e-05
0.000419002648829827
0.000454552748515512
8.08702956076292e-05
7.61867407645637e-05
0.000495615069255772
0.000570120056797674
7.95938049358683e-05
7.68571867398554e-05
0.000570817168932313
0.000522072422778601
7.24922398003806e-05
0.000507794130977372
0.000360847933770034
0.000410918781314163
0.000383244404702976
0.000434813680963639
0.000508669215946282
0.000626777897431749
0.000111646348547257
9.80024477340015e-05
0.000761131116499694
0.00105724957422433
9.56995716039203e-05
0.000816331643840794
0.000767073472656706
0.000720945057439477
0.00094473442854978
0.00011015570865019
9.55795896014104e-05
0.000977405600663592
0.000973148373402474
9.27814158043644e-05
8.84723736047398e-05
0.000949143182834651
0.000595336226051948
7.6663255195901e-05
6.59908352195856e-05
0.00071373649307794
0.000639851136368335
5.9631280143995e-05
5.9592523501603e-05
0.000727263789565741
0.000593274296294025
6.46304417377377e-05
6.52866861070892e-05
0.000429449302874746
0.000345196553333094
6.14258423018605e-05
5.35079625786906e-05
0.000332275286411836
0.000304304439261703
5.12021849661078e-05
5.02232672260611e-05
0.000255749396668444
0.000220460914889236
5.84135315301842e-05
4.90957964927108e-05
2.98403772840825e-05
4.30235164843366e-05
0.000216311041513831
0.0001819127060998
3.62264444664018e-05
2.86761903169545e-05
0.000196958762449927
0.000190335937826591
2.44219688872713e-05
2.08110202537414e-05
0.000129760598196169
0.00014564381104361
1.6163661692318e-05
1.78994631540158e-05
0.000132788862965326
9.6962848511542e-05
1.99196810154117e-05
1.60151607566766e-05
9.70890872960018e-05
9.47899265239636e-05
1.92172645322375e-05
1.67054605107338e-05
8.56494510094969e-05
8.06350042097706e-05
1.90485261596113e-05
1.69389121372613e-05
8.34961201911901e-05
8.96745219578337e-05
2.76205996304001e-05
2.08040167844498e-05
9.73506210673751e-05
8.17975105233175e-05
2.49284980678702e-05
2.61600941891682e-05
8.68862316498867e-05
9.39117050846569e-05
2.98809593489979e-05
2.78285567010951e-05
8.95405632228321e-05
8.61637662804974e-05
2.08780982678851e-05
2.47908038350303e-05
8.13001777360131e-05
9.26931960409681e-05
2.03155672452348e-05
2.29951537706172e-05
8.94885082268769e-05
8.32622526503854e-05
1.65609917264839e-05
1.73262833772043e-05
8.32225036621929e-05
8.76785664722919e-05
1.70571681758381e-05
2.06649612853749e-05
0.000102408493922155
0.000109561988728074
1.66272923828965e-05
2.0369191907712e-05
0.00010716859703766
0.000145995570634754
1.8644428980705e-05
1.78508699178019e-05
0.000182460823790921
0.000153807633137842
1.86641833060754e-05
2.08172851761396e-05
9.63164323933916e-05
0.000102229131225152
1.57666814995324e-05
2.25189957413469e-05
0.000104228555174945
8.97554535540158e-05
1.81231754480486e-05
1.78706657519922e-05
8.17783893062501e-05
7.96540453827056e-05
1.67270531839577e-05
1.97019957894806e-05
9.03530708785882e-05
9.61866386688975e-05
2.08037336818536e-05
2.49007003689473e-05
8.49241817257668e-05
7.92965020498817e-05
1.9583802628577e-05
2.51941906067186e-05
9.50934929083808e-05
9.81818524322514e-05
2.60238163971845e-05
2.46667238573732e-05
8.75009495207855e-05
8.87962031345936e-05
2.60165294642518e-05
2.08584341625297e-05
0.000103847499067495
9.40902566530002e-05
2.10897332962653e-05
1.63205183226879e-05
7.89781746743035e-05
7.92142264485637e-05
1.83461272411787e-05
1.77137866493484e-05
8.82053615391662e-05
9.60353039797799e-05
1.99209841826253e-05
1.5639992483275e-05
9.13326270494251e-05
8.88645775607785e-05
1.97498861623974e-05
1.8510011062414e-05
0.000126940293095906
0.000160803382980791
9.15694159314575e-05
7.9847801485794e-05
6.09949055855916e-05
5.94167211995914e-05
5.97036998567746e-05
6.74082974074325e-05
8.72004659762988e-05
0.000126576712003018
0.000248310735445295
0.000334373735987378
0.000499055582127986
0.000653369928546573
9.51492303356989e-05
9.20623843492774e-05
0.000668883159576354
0.00055541448643538
0.000100825292664398
8.19109037451034e-05
0.000493375158105606
0.00042995770190118
7.27351055871236e-05
7.00768088910545e-05
0.000460646895913871
0.000472223046714811
5.7539710264301e-05
5.61336973989403e-05
0.000519626947202648
0.000409976745802024
6.17328924096433e-05
6.5968733622636e-05
0.000358310621421414
0.000297257306408568
6.49455084538707e-05
5.75303019782578e-05
0.000266648479850954
0.000272621114483513
5.66344179973106e-05
5.23287939686389e-05
0.000212320917970022
0.000197576991805518
4.85401629923113e-05
3.41765035193908e-05
4.49586773764585e-05
3.9777513200215e-05
0.000167916098557913
0.000185768847015208
3.07590694713139e-05
2.28637009193681e-05
0.000154336716901833
0.00016650446070402
1.92018265955047e-05
1.96863822996266e-05
0.000119695620638949
0.000108157802308741
2.18845210691208e-05
2.1542702075796e-05
9.82378707978796e-05
8.37314494216359e-05
2.34748870669849e-05
2.27276623557797e-05
7.51913780342655e-05
6.95320097469791e-05
2.25676953957834e-05
2.29120681371366e-05
6.06062526245026e-05
5.42605361260019e-05
2.42035989316131e-05
2.3952913400511e-05
4.96790918471497e-05
4.53510944088812e-05
2.31749469317566e-05
2.09910902797798e-05
4.30654508333354e-05
4.00982614161161e-05
2.30028798641304e-05
2.46223943699266e-05
4.04763758099798e-05
4.02668990156089e-05
2.46103932558416e-05
2.36417963769577e-05
3.98466911220917e-05
4.12114866371309e-05
2.26475634122083e-05
2.33222651960696e-05
4.18935988701021e-05
4.53686610009417e-05
2.24459388094708e-05
2.50278154750401e-05
4.99002877053212e-05
5.56062450700712e-05
2.38577385142602e-05
2.29136304294122e-05
6.16428170231983e-05
6.69090518887972e-05
2.34201821363546e-05
2.40470442828523e-05
7.67309288076195e-05
8.62436369161984e-05
2.34890701344204e-05
2.40633091964229e-05
9.39998252057494e-05
0.000120262855380288
2.33655049984087e-05
2.21042125657526e-05
0.00011826398425784
0.000116908658809366
2.17183529558489e-05
2.24804828025479e-05
0.0001494813695801
0.000142383192605468
2.85483431784716e-05
3.62753539250275e-05
0.000141446999255208
0.000153497799084411
5.13354024547959e-05
4.91109954915453e-05
0.00017397681984877
0.000182830908554776
6.4031268635811e-05
5.3270018358428e-05
0.00022341698775415
0.000251099786535179
6.21292580514774e-05
8.3270820164114e-05
0.000363076657842047
0.000465635141502289
9.54445334730554e-05
9.10732279585499e-05
6.14372998778064e-05
9.86288208174117e-05
0.000614117111385773
0.000752821559124785
9.41072458044647e-05
8.92471785267527e-05
0.000688895254119934
0.000666668107923943
8.33486565170757e-05
8.07574226848479e-05
0.000590173993324826
0.000677642570411898
9.22842085516717e-05
8.08963256176714e-05
0.00073211260736238
0.000958430517196771
8.14123491509846e-05
7.11998745476351e-05
0.000640884841351592
0.00065042126712153
6.57973122198984e-05
8.70934800989951e-05
0.000560558194161422
0.00078571365211215
8.61398207888753e-05
0.000110725911963159
0.00120800478647977
0.0010966032685676
0.000116991402530794
0.00013977514709827
0.000968381776015847
0.000852666957977466
0.000143607573463821
0.000119845630533597
0.000573549477886996
0.00053288122465074
0.000118073802429799
0.000108058308183094
0.000614354084969036
0.000430158917069013
0.000394820667629113
0.000431385707106763
0.000548626070684932
0.000107513189073424
0.000137641930844728
0.000817720076280087
0.000874003815935362
0.000117604617678057
0.000103926636281528
0.000862940125429421
0.000604760659256567
8.49244945546257e-05
7.76125261683858e-05
0.000430917953347677
0.000449161205046572
6.85341621368319e-05
6.11424664962554e-05
0.000429268451107224
0.000477158406043097
6.03357462011072e-05
6.91057716939778e-05
0.000494123732116044
0.00038212264325961
7.59819296641847e-05
7.49000355612428e-05
0.000342650363647284
0.000285170744560836
6.7866947345707e-05
6.82303217723897e-05
0.000317534636849208
0.000225816041893744
5.86746926559273e-05
5.42291525638227e-05
4.3501888218038e-05
6.0498812264731e-05
0.000221535910853393
0.000171915264852098
5.49231752379317e-05
4.79102890129652e-05
0.000185950964563281
0.000182020724902929
4.8576495186407e-05
3.63369264601932e-05
0.000100498280003812
0.000113098743609556
4.83165635787483e-05
4.90578013419384e-05
0.000106465315539794
9.58134762093721e-05
5.12765276474468e-05
4.52461245579722e-05
8.06627816405527e-05
7.8449725654927e-05
4.08978361225212e-05
3.8184417137253e-05
8.15838881300986e-05
7.83843154063151e-05
3.84765943139792e-05
3.71463968052145e-05
6.93624846641789e-05
5.43736143611371e-05
3.54440727655708e-05
3.52746537587996e-05
4.48720186912005e-05
3.83396857636653e-05
3.32298352991747e-05
3.15158411448744e-05
3.47774652000756e-05
3.26875423976734e-05
2.94966552197964e-05
2.8930073907262e-05
3.15550796081416e-05
3.05449928809523e-05
2.7447962417795e-05
2.74904063201327e-05
3.01622003078721e-05
2.96929407978723e-05
2.63142369129765e-05
2.66228973280428e-05
2.97398713142734e-05
2.93187273447209e-05
2.65125119101679e-05
2.63188075268893e-05
2.88785187268071e-05
2.87004534095252e-05
2.73226001257791e-05
2.75629524717557e-05
2.9522665718277e-05
2.94902535240467e-05
2.7299475171109e-05
2.7067013334319e-05
2.87993302722786e-05
2.88466258053366e-05
2.69932379490151e-05
2.70435757868996e-05
2.92463683821265e-05
2.94955252377625e-05
2.62884285420871e-05
2.6885692680375e-05
2.8958533205656e-05
2.93762775710465e-05
2.7433000491098e-05
2.72404033789835e-05
2.97762737615349e-05
3.05516359471909e-05
2.82593936774401e-05
2.8131155202828e-05
3.09111832716798e-05
3.18838452706393e-05
2.9698515918479e-05
3.04022217921044e-05
3.31059889036321e-05
3.53621937781224e-05
3.24521036800906e-05
3.37821856869831e-05
3.89973196070166e-05
4.55865739586342e-05
3.61389603435405e-05
3.67836983712835e-05
5.54732095590865e-05
7.14982429831614e-05
3.8981639435649e-05
4.04504722664253e-05
8.10571744599514e-05
8.67768630304344e-05
4.0100365102479e-05
4.31712586907861e-05
7.99851724283802e-05
8.50601940166017e-05
4.61184064867334e-05
5.26181129974485e-05
0.000107382690546586
0.000117735644917188
5.33530712816697e-05
4.23193876412022e-05
9.57912731152762e-05
9.38711702787715e-05
3.2731979109781e-05
2.94496969772884e-05
0.000103249612366003
0.000101553960078064
2.54147602652998e-05
2.66655119471667e-05
0.000108714259838094
0.000112882230464837
3.14754956384957e-05
3.92671393914959e-05
0.000108923979552435
0.000101309926403551
3.73795824089922e-05
3.26175302360679e-05
8.16154227185344e-05
8.08521895921327e-05
3.75646297623514e-05
3.16938724707236e-05
8.30643068133969e-05
8.0957926066691e-05
3.20903050206377e-05
3.12045801348371e-05
6.93817577470052e-05
5.48337210974314e-05
2.9278664166109e-05
2.89673382249786e-05
4.3965767882496e-05
3.70809553201237e-05
2.67253014693133e-05
2.6089827384905e-05
3.32298713244804e-05
3.06624332916823e-05
2.42536878587684e-05
2.40939747873513e-05
2.92742556051562e-05
2.81862791137888e-05
2.25534921196628e-05
2.29305811040356e-05
2.77623616149511e-05
2.71002152630346e-05
2.20108066773655e-05
2.23673275547259e-05
2.67734114875011e-05
2.63160381508323e-05
2.19366734470478e-05
2.13239578294729e-05
2.67345596459768e-05
2.65095720112078e-05
2.19066496986201e-05
2.20525546888633e-05
2.60731715830248e-05
2.60362301504163e-05
2.20983460468615e-05
2.20159019813481e-05
2.66438851534668e-05
2.67063561604111e-05
2.22191446694403e-05
2.22800079286422e-05
2.60949771209299e-05
2.62544612880429e-05
2.14920966725515e-05
2.15815808085296e-05
2.6572752320781e-05
2.68879011661587e-05
2.16169877378321e-05
2.13384581999996e-05
2.69347952468601e-05
2.74044920065773e-05
2.24635290310482e-05
2.21025077755163e-05
2.78260828160991e-05
2.88434882420082e-05
2.34865508800508e-05
2.35957987659559e-05
3.01125700584102e-05
3.2486621092126e-05
2.54892226130659e-05
2.63666163993791e-05
3.62588805801548e-05
4.28346263210661e-05
2.82855645989084e-05
2.82395313374776e-05
5.38093447947699e-05
6.69229603772905e-05
2.98668079929199e-05
3.07850254976592e-05
7.78223816373642e-05
7.87826510800062e-05
3.02925896607202e-05
3.59474086514388e-05
7.99041350981374e-05
7.82352480304215e-05
3.24382665046094e-05
3.05956804420937e-05
8.11466041652308e-05
8.03591881887168e-05
2.63655204365119e-05
2.7119938023247e-05
6.95462125045945e-05
7.02236325313281e-05
2.6583732061135e-05
2.50178955604112e-05
5.32525190598818e-05
4.67771633408905e-05
2.53013500462904e-05
2.34853455817678e-05
3.58757020355506e-05
3.39613454779669e-05
2.3273465384547e-05
2.12877800942516e-05
2.9933141791667e-05
2.92336055133991e-05
2.16670399228143e-05
2.01241665793262e-05
2.76440414900873e-05
2.72368474451535e-05
2.08683860649721e-05
1.9556356720346e-05
2.64576264414216e-05
2.66768833238231e-05
1.99505024832153e-05
1.99462901609808e-05
2.62118494917513e-05
2.58086054068986e-05
1.9864744531166e-05
2.05753591113499e-05
2.54632548145039e-05
2.64030961490773e-05
2.04205397066433e-05
2.02609997036985e-05
2.64165778492035e-05
2.53999611682051e-05
2.05247202764594e-05
2.04482844862565e-05
2.54729172653318e-05
2.60723447052316e-05
2.02364343889766e-05
1.96746044012267e-05
2.61673408717142e-05
2.5763235874387e-05
2.0249143770689e-05
2.07299441602782e-05
2.65130345201978e-05
2.67845468322724e-05
2.01671226933494e-05