/*--------------------------------*- C++ -*----------------------------------*\
| =========                 |                                                 |
| \\      /  F ield         | OpenFOAM: The Open Source CFD Toolbox           |
|  \\    /   O peration     | Version:  2312                                  |
|   \\  /    A nd           | Website:  www.openfoam.com                      |
|    \\/     M anipulation  |                                                 |
\*---------------------------------------------------------------------------*/
FoamFile
{
    version     2.0;
    format      ascii;
    arch        "LSB;label=32;scalar=64";
    class       volScalarField;
    location    "400";
    object      omega;
}
// * * * * * * * * * * * * * * * * * * * * * * * * * * * * * * * * * * * * * //

dimensions      [0 0 -1 0 0 0 0];

internalField   nonuniform List<scalar> 
162506
(
1.03451095462694
1.076617218492
11.7856352379536
12.4495956498147
16.6335715661361
14.2585705388948
1.59027620770854
1.21832471646885
12.9040131648481
13.6380660386437
14.1861245386327
1.10881839558565
1.1113166656031
1.01921597594314
1.00298048121665
1.00607077490421
13.0955832808672
12.3548789475621
1.02202737993756
1.46606821238371
1.66572465075537
13.3401689859952
12.7729296363833
16.5121417934596
15.9606933564974
14.2447932324086
14.3964002715148
1.00632407885754
11.8143756986689
12.5091827175876
1.00241070297961
1.00026650218418
1.00199760240443
1.00002295618539
0.999894495219301
1.003798823307
12.2940992934164
11.6840029772154
1.00902098295502
1.61901947540266
11.6729973416667
11.6196994388227
1.47101945874556
1.6796538270532
12.4313225727074
12.0560068311485
1.1399507768559
1.65960261055116
14.5181258529659
17.1148229807576
12.4965715328313
12.7377040217996
17.8384623168806
14.9943034766907
1.81332955849505
1.52611986140766
13.6490036468886
13.1535645993275
1.44843631134993
2.41222698409387
13.8170725596912
12.6470115780032
1.60133123052817
1.03328970921198
1.00676587281193
13.9019360324052
13.036124481394
11.6869158855159
12.0024580910074
1.00216334992795
1.00816353864053
1.00253176903021
1.00060280638469
1.00199231554702
1.00655128477723
1.00760870540727
1.12008361696124
1.31298974137959
1.84972092696625
11.9884521516889
11.9532605365598
1.53240252856563
1.00559821507215
1.00179025119495
11.8114412140295
11.6054415078553
13.1762210060021
13.9108967728177
1.00388412840323
1.0100040611955
1.00011761877404
1.00011098435214
0.999955609206291
1.00000175677292
1.00047022981378
1.00002772860217
0.999912161125994
0.999839421988783
0.999860151375851
0.999923062018828
0.999912979717028
1.00004728024162
1.0090670068546
11.6805824271905
12.289622273446
1.00372043167169
1.00227578960858
12.4965942449865
11.8041478321547
1.00620011987911
1.46888001699882
11.6100198978648
11.6697583675463
1.61850659994317
1.88056684855292
12.7244947429797
12.7292528857335
1.88180586653556
2.02042570722683
13.4199645382361
13.0096082701319
1.80742487459247
1.21734849028447
12.3969396882489
13.5338487327704
2.28592907897778
3.11166547733582
16.2309184843078
18.9490450477136
13.5103144741631
15.8230983125808
21.7773492337334
19.4480098467016
5.72826255200818
3.60462914894281
16.8257534168728
14.6522866777391
2.33573717349105
2.66061546711551
15.5961490541808
14.9065301595129
2.43033815566864
2.66618951930794
14.660585047712
13.5245934501583
2.52094577077549
1.83661699057631
13.2115021139862
15.2974367509057
3.19406600523691
2.07703006724054
13.2957414686938
13.6020688422554
1.88367124947924
1.01321976385368
1.00525632898504
14.966942387673
13.9111837047377
12.8154070741702
13.6253564130203
1.00477209987667
1.01060975248335
0.999925091246979
0.999940167104755
0.999911627378869
0.999769525620508
0.999802902588314
0.999921998919625
0.999975827199313
0.999986083066478
1.00050457375614
1.00007355814253
1.00035583361616
1.00213483154383
1.01995762019473
1.00330876674839
1.00433179658434
13.0739494105365
12.3333041379162
1.01948502428296
1.07036250624156
11.762879618949
12.0304692298533
1.13312416306912
1.67636224393611
12.4187724795451
12.9948428347336
1.80499602319109
2.01896967756671
13.4132755120232
14.6137028790113
2.73500354125681
2.747877098741
14.6352648280721
14.1965472347017
2.60861037805307
4.38027951171892
17.4532114027746
16.5670939976634
4.19648731955253
4.86900104267558
19.8262615200272
20.3775763155106
7.5651788745653
8.23105984932658
22.4226135602011
24.5387393857096
7.94556063635829
5.94792534502333
22.6293792791102
24.4155528670043
6.83569121233717
8.93987717036896
32.1975350905653
38.3473916255909
11.0841376856407
12.3823783690314
34.4617562507336
37.3122599392958
54.1382325800636
32.0019065840934
13.96994096644
12.6390262261506
30.0772079846968
28.5537651565676
12.2449671612165
11.8797041571285
29.9721877797653
40.5647229893939
29.1484262859441
27.4414685322996
9.20568977672644
23.9758014387203
32.5244885925327
28.6462968805763
19.6722311495453
7.8188834131734
24.4908203091329
20.6068850123562
6.08288230153826
4.32474935889376
18.8775468761855
16.6885334815297
3.19993672365856
2.95987557762185
16.07874974729
15.2883840540606
2.75583775465664
2.07572573260051
14.8633731805845
14.1534856853194
1.98354128947505
3.52582480881782
17.1323351133993
17.1379421140273
3.48582219566076
3.09092346870028
15.3369718044568
13.2263777583867
1.69013720108788
1.32003403681366
12.4084188570672
12.4014253021216
1.3287230316716
1.01034391499165
12.8009994524242
13.6086987905432
1.00482129637432
0.999955103932087
1.00005120237183
1.0010102183973
1.00003221163054
1.0045914117373
1.01696275420252
13.8699302746094
14.9182942110087
13.855939609854
1.00534177233806
1.01138095453169
13.1299495792399
13.2725958895872
2.09852446997524
1.54314375371543
11.9440083406858
11.9906309803943
1.85635029221718
1.00790295984744
1.00225595633842
11.9725405241731
11.6715594550061
11.579454977969
11.7742794627495
1.00203021859964
1.005910063362
13.0125231792457
1.03252476827326
1.00643546473378
13.8643168088688
14.1613283674544
1.10204379810573
1.10379116308611
13.4366361263704
12.73218599724
1.31369473955271
2.01800059744751
12.595431680549
16.014090369141
13.5478547820793
13.2671851991027
13.7992790551088
1.16681070894819
1.15138186662805
13.1131162685694
13.4797177927302
15.4106460631312
15.3805359559377
14.4627936513303
17.0622302004305
12.4681528784172
2.0964209515335
1.55146535987836
13.1431942307034
13.6570864597609
1.65303747001594
2.26257486177937
12.7038591350009
17.7920594281957
14.9512353955426
16.2934132625943
18.9427536709827
13.684071291553
3.75511577902831
2.36338203359009
13.5186550724743
14.1596712761604
2.59239260402936
4.35625028251911
17.2877589193103
17.8695755791474
4.46160045096331
4.48545765049205
17.941442959299
25.4998620600981
7.22171925618384
9.7563042066597
36.5057906852728
44.8664047392456
11.24352216764
10.8285680500252
43.1601433765197
52.0920885542777
16.2502613127306
16.1000207251561
46.955518292772
40.6747266917091
15.5409641703949
13.9858063220014
34.4362889200271
56.5135208575463
41.2216867917566
43.8619545874359
54.5482593000027
36.0527232040458
15.0809260927236
12.9392954029002
34.7742774986079
32.4201805709755
12.8036691808838
12.0709272768088
33.9712880592537
32.0832749176667
10.4325214394875
8.9529376158348
26.6987054375428
23.8998560927356
6.92383555041885
6.47920930758758
23.8072864488116
21.7574309964403
5.71746363355919
3.67187163858439
17.6668788741804
16.8705767015534
2.6216610040207
2.19037682381371
15.6088481091077
19.5022750891393
3.86924684804691
3.73978438178546
18.3531755095815
18.3337692817694
3.7455511643469
2.04823312980843
14.821453073674
14.0847844517705
1.91174540892103
1.91593616389764
14.0793627370858
13.2250049232987
1.69043560684093
3.10442550436602
15.3372081133345
13.5831059144187
1.91021780712669
1.25922636228949
1.00128801892217
1.01041957068529
1.01817094890311
1.00081991669626
1.00030759541963
1.00016522648544
1.30022235851335
1.11919308686367
1.35729389878471
3.2176083441955
15.2979867733934
13.2092299768883
1.84653582527033
2.52975821407917
13.5313939557942
13.8231913347809
2.43044952554889
2.47204123309103
14.9296637308175
15.6585091529654
2.76002807043771
2.55227631370818
14.7300935905861
17.1685504983283
4.0270036274083
6.29872671926644
16.406166595434
21.8708620588912
19.6319256099421
25.0733246274168
28.8458870074203
20.9198947830781
8.65687227167457
8.15127569941965
21.0107070927156
19.7414882063495
4.89570117587347
5.97748078037496
22.1123497449805
24.7820620118373
8.62715858888348
8.89710897615497
23.5316347012458
26.0069964276581
10.016768672824
29.1686631639582
33.529646118869
43.4679400662319
32.4679011710205
13.5293515176812
32.8247969361713
34.4755415455024
14.8064223445099
15.9707823694906
39.0586482721635
39.444016890317
57.6530632754458
41.1131067395715
17.5162419749244
14.989716721873
36.2257540507757
38.186918901526
13.0357108198387
11.8958263953309
42.5459939242179
44.1945546137888
11.7008653719586
11.3347423437596
45.0372797200346
45.3480849925343
11.292218741853
17.4187112105584
54.1898992892699
54.0371836607682
17.2435465061456
23.3473503623693
71.4081486367625
70.001407170052
22.3437236504325
21.5122283016212
67.1429331384221
62.6354602530061
20.6827209797001
18.4591744026923
57.2294562440121
50.6731516670126
18.5463714589164
20.9525595188723
59.5351657068412
47.013866622999
56.0144769743959
37.8578620813635
15.9119076454499
13.1901066520986
36.4490979752504
40.2651648408781
12.3545784359865
11.2929190744769
38.4665171220614
36.0896196709787
11.1357763732942
8.26591548434908
30.449086909679
27.8445898195384
7.59323174142063
5.11678020533953
3.31844848735991
1.6769123704765
1.78017998133297
2.2929960658217
4.54846830703026
23.4465329422653
22.5422125381956
4.70025524781596
4.45793797885162
24.4092465601856
26.6804944965077
4.93960673433166
4.90131891596857
26.0806168223491
28.2895341733673
7.48802743302077
7.23728348512521
29.0031372917083
30.3148667223763
7.14982216990547
8.75556329435425
33.1839019776988
30.6037858856173
9.06137549422017
7.05123586075419
27.3167320474405
4.74688285063445
9.4393118091987
30.5870002336964
38.1764554311987
11.7934529217835
11.1792062111959
37.0491643285738
31.2546977356528
7.74517455838907
4.84607725594499
25.4125525096586
25.6193290570491
4.79473530733622
4.82566617848315
24.6200360134464
22.5845796136617
4.69221761808678
3.97871235727266
20.6809711908963
20.6445333125483
4.00329784792813
3.88740143872564
19.4683365592391
15.5074357311264
2.12247814036263
2.12949894474586
15.4929357366802
14.8127188929311
2.05692155562335
3.76001402909776
18.3120029109436
17.1300887717477
3.50282395074493
3.53832753398419
17.1283013430875
14.1430993259786
1.99325177503343
2.67844025518148
14.665589041956
15.2818583807995
2.75805533047681
2.94219409815044
16.0348020290046
16.9463026899299
3.51367854779608
4.74523414931429
19.4353567083515
21.586440029057
6.78874337465686
10.0434149688743
28.8417144832931
31.7879362726308
13.5130003129215
15.0201671929556
40.8200946376607
43.2491261074608
16.7969690127543
16.4155407650858
42.3817359145418
47.1530732030967
20.787108986599
20.8364280630858
49.818430976898
47.5357175844596
18.0410356060166
19.6510887002042
52.330729002624
61.8649609321801
85.4114979294886
76.292006774471
27.9271038199014
30.6900161715794
78.2891131986237
71.3666602740752
28.6160673338308
23.7692220489206
68.0226126772329
85.5396100266396
55.5440226542017
49.1745481595068
73.4745689663803
53.471660292216
23.5454239844559
21.6418183344261
48.665766836628
49.2829591144545
19.1596127671541
17.6693389061322
52.2890762987985
53.3299760184112
17.7638451089079
17.5220437099232
53.843563040451
70.4460483989324
24.2148310024387
24.3423457929662
70.818862621599
71.1283404869771
23.7001745125327
23.8415231981949
71.1740006746045
96.3633189874588
34.5756593221139
33.8757135822517
97.0490580934046
95.7657297490758
32.5631904077744
30.6819585300614
90.7240750037804
79.0965511526441
26.222911362369
20.5291981301552
66.000682576143
73.8018129203266
22.9465318704286
23.3497967187476
80.7371846076075
83.7879139713538
24.3312347170725
22.0959799525681
65.3071843944737
49.3648851888836
58.1644140452369
39.2757258425732
16.6822179901272
13.4829093513671
37.8997527760632
42.295228178526
12.6099373543774
11.410672152254
40.3310695791063
34.325358717285
9.19918738734969
8.64936027209303
32.8794108699695
5.82412002713431
4.0570182857915
3.84289817230065
4.6034079807026
2.65939088882903
2.29888611843275
2.06308883950252
2.22852664076747
1.45125308376055
1.27248200056954
2.34862745491785
17.5292918444484
16.8676942198599
2.23264073444607
2.16981026404127
16.1810463383617
16.1472526682691
2.15327900015972
3.97512427477966
20.4910392869746
19.4159723026085
3.90509698803086
3.82417229077257
19.4295256959703
15.5312526696679
2.18298616155686
2.89735399826211
17.1087344065355
18.0302707273154
4.0520866922265
6.48921320962987
23.3511335047554
25.729802863052
7.96636327422386
7.66119039273189
25.665131703018
30.3759762050136
8.71336480757493
11.6666996309725
35.3627431627913
40.2740800010075
11.9819149175907
16.30717846253
48.3621832827296
56.2099198735078
18.9530304561577
29.3447284453452
83.4762181328582
96.8263888028542
67.1667171346024
65.9367267061165
95.6110844804004
90.4603741693018
30.6100876557502
36.3418449161725
105.460171078642
106.087168681739
42.1743388076176
41.2249859897375
107.556775244318
131.396063145457
46.1225226489157
53.1647332990915
147.584999344063
142.413711532699
50.8724375343278
51.9940904007354
141.386012327502
143.798386114864
52.5094999862561
52.3885990625909
143.927460945393
145.019117109358
52.3243018100423
52.5598871653576
145.251171064479
145.557306520423
52.7534655103254
52.0700384858302
146.106918145748
146.240334444887
51.5315529081074
50.2684950449047
148.138583527278
151.470766866794
50.3384413246426
41.4310806521003
131.41818412576
96.5431697982189
30.6188202341102
32.1075619140883
108.314410996421
113.734839474299
33.8230258337343
36.1198398549119
120.514869404476
86.6165176363043
24.7257898677948
25.9898399710015
90.2497492987159
69.9028359105697
23.1991312092894
17.3805522655928
40.7935533303503
61.4849407490018
51.7832615808576
54.4763416211211
65.6007651393372
42.8251957513276
17.907198422368
14.2920269360818
41.4652362103997
39.4148656334175
13.7635575944176
12.9702379618424
44.3949274484996
42.2869625680144
11.5918731129145
9.43728273008324
36.3333561318637
36.5979094063294
10.6978988820298
10.3443740723084
33.8868120474823
5.72112559682783
6.36108388398645
4.98204526995894
2.31412496400096
2.48118866561172
2.20194509081456
4.32145584616344
24.3355198881361
23.223555033014
4.20931443897367
4.13145597894825
21.9532513794508
1.91442438061537
1.16200178341029
1.14768087998227
2.21395624714842
16.7715915763902
21.5703475868451
4.02312942008205
4.03188485738569
21.7662086259024
19.7543327596362
3.56328509238864
4.47931330539001
23.104318254935
28.0426770105568
6.95368003932519
8.82392681691675
33.1646938560605
33.8773164425591
10.5075141312553
9.04016870725289
31.3621077017172
33.1522308821683
9.31352778375162
9.79474254181742
35.5298938564851
43.026527255494
12.5335656135816
17.3010209844333
52.3136915215393
55.2907833719586
19.3628621304516
19.5954906161368
57.3787903284751
67.0141933824524
97.1074930315578
95.2682222565894
31.6820699765937
37.9091769191678
113.881714180837
127.133591355067
48.1589937725407
53.8992235640142
146.720286906586
192.671549269735
59.6801652200328
65.8967319721593
258.225650148153
295.103783080773
66.8662462379786
70.6937694838616
283.722606884268
277.244874507122
68.4215607679568
70.5011955499787
277.80681387727
276.998260098252
70.9523202021486
73.6781561206483
280.3267132677
284.998757487531
72.8829401521132
72.5349563084084
286.327870273318
286.23782867799
70.9636927487025
73.7488801806084
287.308525200287
289.913726264121
72.8990008599517
71.746242860066
290.0954525282
290.145377392252
72.6940573244958
73.3756949958842
289.761398139364
289.258576218556
74.7034484352142
72.0885920092765
288.055387127925
288.425625210057
72.8208931012661
72.4493077990526
286.618052952078
284.162063974659
73.0684851637065
70.4251168277882
281.26163871029
282.267242292624
69.6461434130814
67.0788490858557
281.875648417352
287.213344283732
67.8194124686838
63.7565603154068
298.845075840653
259.131011244858
62.4478786093269
61.9910293084719
247.736010368065
238.772780748933
66.3011679444103
64.9395471160041
232.991811741902
230.226109983697
67.3410000920284
67.0229404645158
227.440002081728
227.75850954221
69.7174848583128
68.7028785032343
228.150500501434
228.375837556354
69.6109733753734
68.4314708241159
227.49653120898
227.750521823882
70.3087278280946
69.3277785493725
227.563099459727
227.720232802357
68.9019110960237
68.2588458733525
227.469398584295
227.230730770647
68.7942778576376
69.2233366228615
225.632752869505
225.170795110054
67.638630119082
69.2620846506093
225.511501381556
224.946081008499
69.0318546648518
69.8472799048914
221.690044246885
220.502518739782
67.1725836980142
67.7269404488522
222.220677260261
224.421511701589
65.7335215014084
68.8792584992959
230.973694383494
242.15694997512
65.1585964418124
66.3953515309164
36.583219181608
23.9433853240636
13.299823872355
10.5595490614148
7.12147928330151
6.0113590971759
3.57300769780165
2.80083532701943
2.46868647298619
1.85848010316075
1.80220425825665
4.13578640477262
22.6569621372249
23.3843148309264
4.32652550147722
4.54505799401578
24.9493037596297
25.1188018825827
5.06159949309432
6.76670124508733
32.4937708655423
30.9133063735192
6.54133280432803
9.70628081647157
38.6436629233726
39.9233266700392
11.508515381824
9.666760198402
34.452954301312
36.6063952132083
10.007055291916
10.3537346706125
37.3054500286736
45.2930177708762
13.4493367099586
19.0726698525121
57.7636778407983
62.8680049689052
21.2166777335415
34.9878332368315
75.538828244884
105.862692682711
95.3238345405067
123.21486810149
39.7026824768926
50.1068982635224
144.61892808494
191.959895440455
56.9212949299576
72.4742727853973
290.984589657976
333.516740075283
73.4018947074898
73.9727548557903
314.917828234738
298.789874141449
71.3155644114
77.1485441192007
292.091244378853
288.675288765832
77.996166522914
82.2541579791787
294.707335942773
299.846967330062
87.0371302937811
92.3528002994398
305.750615347272
309.711393130369
95.2556309151887
98.8640536673329
310.530531006491
310.98282950495
101.357038442848
108.644475647126
312.937061761485
316.493350282269
107.326322063023
106.341570642474
316.216859152328
315.777848997507
108.087677631288
106.388740461185
315.350652062901
314.05375044297
106.503950946118
100.024130715361
312.238631779703
311.957869470583
95.2600257564621
90.8910061506377
309.693950557341
305.102629906742
87.7567790541124
83.4002011581353
297.8481955659
290.384016858892
79.0488983947001
74.3502468137378
285.157508706426
294.755560819291
72.7942417927393
67.9415557465872
311.17967606444
256.593477437469
59.2947319636387
57.6941195495926
251.849644946714
165.971636437211
44.0688647976197
47.2744569287372
174.484286909087
189.655647148649
50.5096198470919
53.9128092721863
212.506050317021
129.273090870328
38.3993245732833
40.6363524272788
140.963824702642
93.6010299066635
26.2859416127697
27.3458192808146
98.5243527976027
75.212250606577
24.1042231380924
24.6290384118141
80.7133019486938
59.0920195526802
73.2847348660777
48.9248437509123
21.0672071631039
17.1554857243925
48.0445958751776
51.6550061793883
16.1208355206231
13.4827398773837
48.5274071790691
44.4206141287941
11.8044407513689
9.65193707971885
38.1641850624476
38.5778447398292
10.7736775230784
12.2298760100557
45.7245182293332
43.2679706263198
12.2545600419465
11.3732189403466
42.1431034300875
33.3178880709452
7.09997050773535
7.115268208004
34.2657627074224
28.4589893180316
5.77133131268321
6.21838465807296
28.4570093906041
25.6361138488687
4.48395444445787
2.57628832036914
18.8750221536549
18.142816970946
2.489899967436
2.50538512530265
17.9956329645437
17.3751025801001
2.34158839434307
1.27908049722813
1.47427884049476
2.00320852170824
4.31548233476494
23.7983463481513
25.3020109556086
4.58843011840933
6.27777458549392
28.1431896938167
28.3049840412504
6.16186132149545
6.64520662206649
34.3883942606418
33.4314038656994
6.5060187073145
10.1148302660705
43.6769930476547
41.6938119261324
9.94514742045157
11.7480721606945
43.0868958783149
45.4254868195222
11.8709638845122
10.2937905615846
38.2784814117231
38.9181794079143
10.8273202292734
14.3194628318222
47.6414673539195
62.7651886954597
20.1220589440254
22.1185740935645
71.3769630312154
90.4915952447499
125.8072912026
101.559041548996
37.2917867650332
42.8303037096496
144.559076094021
173.311771961202
54.3100552954559
63.1395655394011
237.032564642373
343.553846994888
73.6488964377784
93.4286296927272
452.245860266788
422.269347221245
96.064026000554
106.37271260566
424.967593647146
504.365334242385
133.566602390573
169.99170081517
641.655507411035
799.916585694976
202.036225031144
215.684770039111
845.602762609505
860.115076452954
225.911632413545
240.977573153989
863.490392698394
867.495197612507
262.674168546482
284.664446929877
865.709749115484
864.188087231719
304.340334115658
318.824652099858
858.292685545853
856.727779825743
331.5482824441
340.380261346787
850.651192717309
851.559125602016
349.474124585941
354.718047193978
848.413592647077
852.568820865941
361.907017603301
369.881468021973
853.01090560602
858.767465190144
377.93320459496
377.003462518478
867.327846812972
870.27489492237
371.63568460834
369.057487593611
866.175347467691
864.391065645565
376.576154246121
380.6046659492
864.049946216165
862.061921006418
373.514992502097
372.231943401034
865.912799281315
862.536062934939
370.562372835044
369.680239527875
865.030900884571
861.559794632319
361.457938010911
352.982036076622
863.197828006764
861.243114675191
343.181826515395
333.037891179323
866.406137996294
867.515558302305
319.119037019417
303.546579040679
874.845949565317
877.335926206424
283.25737106737
262.795765815127
881.708282099715
879.69962507935
242.628961175609
228.565250383
876.612379785029
860.414754779546
218.079793164737
203.038300080346
810.669391398675
646.241763050866
170.820205732928
136.029352611276
518.159627549897
458.982573768203
111.132349884452
93.6341805119001
459.033967622932
325.565141143247
67.2636078200618
63.2421238872314
298.868552222339
281.407640667149
61.6977083173035
58.9725269659417
265.340319728518
335.555095445742
71.2391752374409
77.9673001273475
367.150251529203
408.053108464292
84.1194215027172
100.026924433345
400.183284565929
434.969158695128
121.804614155558
160.997543870889
586.890830892622
704.724703173923
194.516531349323
207.405351097894
741.676130890135
756.044156841951
216.630715595214
224.600874944967
762.127584976812
768.268832492908
239.847418327717
255.863696707222
765.962476606037
767.873742369501
273.700602456551
287.921527718366
762.05736353715
764.204823856846
301.252045691533
310.982360669168
759.412908617722
763.093137572439
320.537639653727
328.368111998358
761.620114166897
765.647921728105
336.478465370496
337.404682803968
764.378625734751
767.301479007177
339.997868896271
340.977546097956
764.187529493047
766.168871120322
347.416441343874
343.464487052893
766.725885541986
767.398162879841
337.4459255551
339.773420184402
770.624948196988
768.848122965768
343.505216562473
344.352235218763
760.905546171627
756.435963864045
337.12227955953
329.40336647437
755.444642633861
751.269565315827
322.378022025586
317.467342360441
754.218969297123
751.380350178535
308.293188243857
300.127388959475
756.91776031658
755.223572337697
287.952365356889
274.676374740606
759.569467985445
757.141304062999
257.452380777463
239.511614234916
756.99813428557
749.665384592702
222.748460776082
213.890633932601
743.751120263176
730.331146588866
205.111628113415
193.027172947113
696.160468075612
582.176979968365
160.058787093371
118.549722545763
425.990276748822
482.794846074575
148.224136194679
174.394813036543
546.420826532669
567.457292582033
184.667196404313
192.606304603083
578.359569453637
582.422527504003
199.691384452903
212.109416272443
589.289684661184
589.515371144489
226.095405776143
237.837290589091
594.725423264443
591.984883420904
248.666754267915
258.58178062257
595.855094222888
591.280161678883
265.729159378721
274.07672290167
594.905795890314
592.573658568601
278.632973062394
284.686551551131
595.94875162586
597.336578975178
292.205236794616
298.11018216871
600.072042483847
606.655367817468
297.286548276903
295.409504496931
607.671308115274
605.403230311715
293.355927505946
297.189208339875
605.24302966002
604.614828145093
300.844855468605
296.046752053676
603.229578582115
605.40154535255
295.333777721081
291.888882650194
603.136605670009
603.402544998961
291.144477673597
283.813612359984
599.863766799717
600.93891957343
276.695242955103
268.471507655611
596.677631141606
600.684537270533
259.641839610305
248.798907445468
596.335554657568
600.464879454239
237.294983003919
224.82905316777
595.119424799228
597.206495315581
212.784899297485
201.112221361658
590.655490098882
586.365573114153
195.055825999325
186.86236647432
575.5112602651
553.612080493171
176.241585230799
149.334752537675
487.723356918379
400.215506974015
127.630524125631
99.828516390219
355.23413667472
353.735835608006
88.3561900722567
79.0603471598591
319.201272664186
311.038611506717
82.9345158307595
90.5104451634253
321.757343229184
334.083575079853
96.6666415823832
141.324376125009
426.471397022307
436.105505055958
152.71392228094
170.526438929892
438.722242479278
439.448221357377
189.60280455044
206.074810039482
439.502551869849
441.603779790115
219.359386267413
224.497512662287
443.566808487726
443.585722146745
228.738456508275
226.377441037561
444.582927190551
445.673548296816
227.181711991856
226.455980318641
439.725031243859
436.512174487919
214.449929559425
203.783662873316
435.747292803318
436.202261631175
189.467488981624
171.818954392542
434.60166892281
429.861542837516
152.715495054421
139.776888155509
420.308385819462
396.060580611179
125.70282752004
97.7309112745461
351.499614547193
332.91665947978
82.6752496084913
94.6838450588973
372.40799479162
375.976230878938
87.773524287401
84.7614969384175
403.146202750819
315.677750841772
70.6772504774069
60.1041849225938
208.486654863103
298.658790710173
70.7237566178309
79.4161667443022
365.472326126328
341.509316192902
80.2786201018242
76.0864323963296
321.630233889099
309.998263394367
75.6251524130461
83.0544889088103
313.662819927115
319.569110338564
89.0557301306779
95.2965873945575
329.391864140274
335.629401840966
103.450962427823
115.353910578473
338.88365206153
339.838025181424
125.766738239101
134.886799759294
339.189173820356
339.120877063078
141.761614459888
151.367616610287
341.252118200201
344.970892521234
151.321312563544
150.64971838325
344.517525380982
343.938764329088
152.351217605952
149.253762949158
343.539052189273
342.659628564336
146.509888609348
136.70256657942
341.484213875303
342.423221319843
125.75392822949
113.863234540484
342.466363612957
341.201182056764
103.385625537578
99.9636485592527
84.38943298762
80.5507546937199
75.8713054518639
72.9339995311268
63.0198736829934
59.6767180654055
55.5642686370929
53.4130287601994
44.0024727853881
41.9586085544373
38.1427599621784
36.7268945964511
34.0707378761504
32.3839585586547
30.5890718434174
29.2887752721096
27.1794528211699
25.4720598529825
23.5548346333937
21.9176676597459
20.1269919534837
18.3418370932915
16.3083322689589
14.6947903349095
10.276988989162
11.5558033197913
9.23573809816233
5.8853949420477
2.86579509543631
2.0319653223542
1.4254050893844
1.54008667670799
1.62307036590366
2.6360922044775
18.7887050890048
20.7415530386595
3.89631442573093
6.81297448402873
28.9046802021737
37.5527750598917
10.8095531058153
8.2970866380304
36.1596342260663
36.9699393738167
7.00219067209961
6.57073436844782
35.3625835837239
47.4439248230402
10.1394372646021
10.2159697812087
45.647024269416
47.7101329101748
11.9675663989481
11.3667897553464
40.990146749342
42.1368041590087
12.2102665411509
15.0286872660547
51.2872227115374
67.7533648084237
20.8176400319851
22.716633709183
77.3093585605501
100.15560437057
144.756943921141
114.965435399478
39.0291323311965
45.1627045751194
172.701334155395
223.676641830667
58.532394769505
69.3349579730318
362.183002245412
552.58528236087
84.8174379028273
139.747418036596
826.221915809689
775.380493673904
141.693077826465
170.774373521797
836.19880753426
1113.26928299807
216.91693315033
296.098703631371
1601.23409441001
2128.60399126696
401.683076654323
436.716254794758
2238.67135308068
2241.8343961873
437.007408205427
444.351491141449
2197.39913980549
2125.56995551593
461.528506038627
481.658221429485
2079.39069700086
2109.89334938053
471.924466874235
442.871325328964
2158.6899223242
2193.37278910736
416.450303568786
408.833240280635
2218.27175428162
2224.60404353475
405.433012520852
409.31193683241
2230.09444792773
2232.61844424967
408.827992865368
411.372773397942
2225.21868346593
2240.94732548721
417.443174662931
416.639474722614
2246.72162306048
2274.36341646873
416.965317358888
412.761506251323
2265.18227334968
2244.42968663447
412.971178202672
416.744450434818
2246.71292468648
2248.14847269473
413.728666255317
415.252922233774
2258.41865330452
2245.15384759061
414.968181196282
414.983712344541
2255.35872635426
2259.04246942173
413.176698697235
409.082726211258
2254.91535598652
2247.2516909765
410.905109899308
417.514457940235
2221.91127339513
2186.86088330473
443.492671929742
474.447186995301
2142.14888517552
2115.50186434881
485.220424209437
468.159218253312
2165.27358129818
2237.9819084982
456.535089074023
454.916806996285
2281.97307165059
2273.3579020447
455.844119756372
412.704379411217
2150.73824739455
1608.19186215557
298.72293872731
218.218602918631
1147.59225589542
908.806772434055
169.528022315095
144.859966130327
843.361466786158
524.805818561972
83.231978786297
76.7817784167037
449.106214457022
401.153655583123
74.5936263061134
69.4290379686204
353.933664107314
529.319707632724
101.325034765867
114.287812795675
620.643576865358
726.821261953663
125.816508197706
150.184287659662
766.201976918441
943.093968761802
187.03985879841