/*--------------------------------*- C++ -*----------------------------------*\
| =========                 |                                                 |
| \\      /  F ield         | OpenFOAM: The Open Source CFD Toolbox           |
|  \\    /   O peration     | Version:  2312                                  |
|   \\  /    A nd           | Website:  www.openfoam.com                      |
|    \\/     M anipulation  |                                                 |
\*---------------------------------------------------------------------------*/
FoamFile
{
    version     2.0;
    format      ascii;
    arch        "LSB;label=32;scalar=64";
    class       volScalarField;
    location    "400";
    object      p;
}
// * * * * * * * * * * * * * * * * * * * * * * * * * * * * * * * * * * * * * //

dimensions      [0 2 -2 0 0 0 0];

internalField   nonuniform List<scalar> 
162506
(
83410.7654600999
83411.4099724878
83411.0936746787
83404.8430997015
83399.0933051539
83381.8295757949
83401.6219512439
83401.3089370026
83379.8864568023
83456.2390691681
83459.5441504437
83430.9389739574
83423.4563242179
83417.4568704745
83418.3108643037
83419.1235313555
83419.3073034417
83416.4055523999
83418.0217075566
83420.8822840435
83429.1603225733
83427.4864003299
83415.9650017517
83430.8603636569
83443.790404277
83457.8650376888
83461.9783677095
83414.6217621087
83414.4999072244
83415.7014939322
83415.4207094306
83414.5109956326
83414.1742939239
83413.4648663377
83413.542501201
83414.2875485034
83414.4916289927
83414.2551833784
83414.1087690114
83413.1808956415
83413.2004706757
83412.0347450132
83411.9794597505
83410.709550435
83411.6157328812
83410.5558994167
83409.1379720241
83406.9894562136
83395.2965827992
83403.0223598644
83408.9452756261
83412.6534761913
83409.901193141
83407.7786255543
83412.1783269185
83409.79432675
83407.1475298062
83395.7632144399
83404.9707307558
83407.4398344933
83407.1232472919
83398.518248971
83404.9524668086
83414.037775415
83420.858169509
83433.568921412
83414.3841064811
83408.7495637202
83421.700587817
83413.9738889361
83411.1182206822
83412.8014735139
83414.0723519503
83416.710341605
83414.6180013955
83409.2200180308
83407.4351727195
83409.3844933693
83409.1026818806
83409.0767254996
83407.3205990995
83409.3614465632
83409.3563524522
83411.1379475648
83415.8374418914
83405.7071447786
83405.6302747664
83412.7459958681
83409.7122507041
83407.9789539432
83409.2782170236
83409.7722866307
83410.8474588431
83410.4743990198
83412.1833393516
83412.5966878837
83412.2034302879
83412.0843147798
83412.4269309188
83412.5315319332
83413.8669196116
83413.8081117455
83414.4358579972
83414.5698123089
83414.7829827009
83414.5780333943
83416.2666919787
83416.5267277932
83415.4016983699
83415.5038205198
83413.0835368712
83413.1076521246
83413.5821333889
83413.5482605475
83413.4392964136
83413.9361948405
83413.4354000762
83412.9250181582
83414.6564561569
83415.1202131403
83413.0801888514
83412.571901251
83410.8370448309
83411.8864775231
83412.5660953648
83411.8730015568
83411.7996816325
83409.562884845
83410.3556619581
83412.227624363
83411.2323579469
83409.6850729345
83413.821517193
83409.8408443482
83405.1196280404
83404.9835659405
83406.4278740297
83408.69887989
83407.499758482
83406.382909974
83409.6498132167
83409.4651479796
83408.7523889872
83407.9357502297
83408.1655946122
83408.9641425529
83409.2387937792
83409.0686301049
83409.8551526246
83409.8408888876
83409.2115107083
83408.1287318889
83409.2486109913
83409.3518613583
83406.6834493219
83408.0911774143
83409.1073778444
83402.8401030881
83405.216541884
83408.8929431344
83408.2067170206
83407.6841305524
83409.3848143005
83409.4578556079
83410.7798544063
83410.6217176683
83410.9111561326
83411.0653574609
83411.7649589693
83411.4105428871
83413.2129127183
83413.5767004582
83415.4152129268
83415.1336611916
83418.8236153843
83419.6642234694
83420.3903386763
83420.5918828934
83417.7459195066
83419.1206445471
83412.7253705818
83412.4171762328
83412.647434732
83411.258685076
83412.2945540005
83413.1523080386
83415.1756091218
83414.608260147
83415.364081547
83415.8378901081
83419.403227445
83419.6908678417
83418.5254932856
83418.3795336627
83415.8776384847
83415.6862291114
83420.4798791707
83420.4964764096
83413.9390341262
83413.2649173638
83411.4620506855
83412.8403881891
83409.5062275082
83407.8489376897
83409.4427004448
83412.0034533495
83414.617097816
83413.5758726236
83416.8291348313
83418.7359041347
83428.4351229266
83427.8562017418
83428.0721816207
83428.6644005713
83432.7225369628
83432.5443194891
83418.285024788
83419.4693349006
83417.0323707116
83416.8568529027
83419.2358338919
83415.9346882751
83416.3106745321
83430.7553043281
83400.9159952814
83411.7743363439
83411.2101437397
83413.3351682166
83403.4381541524
83396.6739114471
83379.7579404378
83404.0015140443
83407.5954470577
83395.9164070334
83400.4934922109
83407.0331991774
83401.9604107383
83387.3745485055
83375.0800952144
83395.1745178088
83398.8767101566
83398.2320830884
83403.3866892383
83404.5914779151
83403.2245142132
83401.671131525
83405.6326254585
83406.6567205892
83406.2688177263
83406.0127769924
83408.8464247649
83408.4754767527
83408.5854341818
83408.8884332235
83409.3127964758
83408.7211749061
83410.328971147
83411.3320335689
83410.7326509334
83410.2175207585
83409.5451968109
83409.0842541181
83409.7958349207
83409.9470918374
83407.7063706242
83404.6877651728
83408.6916276168
83408.2364088217
83409.6389587217
83409.5508759133
83409.2391643396
83409.6422111452
83408.4394577673
83407.0602370607
83402.6965915169
83409.3374388165
83414.4082539749
83410.7891118547
83409.1403272969
83407.2410229894
83409.6799892933
83410.500219132
83410.6031953195
83408.3656407362
83410.222519837
83410.5744145133
83412.8310843805
83415.7116689142
83424.3017786104
83411.2745447527
83407.4799548359
83417.7878965005
83412.6087303077
83410.7279624098
83416.3125225122
83415.7765526344
83422.7207633038
83436.0914521833
83462.1084094526
83432.9262611474
83425.2632024305
83457.611586315
83381.1240361767
83403.4199203335
83403.8958595311
83407.3090961376
83402.3023443618
83384.0354475394
83459.032483553
83458.1720947323
83431.0760953469
83422.2700336794
83417.7869620563
83428.9906902569
83444.2968049614
83432.2244057747
83399.0522250896
83405.8278592631
83411.2492599681
83409.4275548564
83407.3876451091
83398.5999499934
83410.5507425328
83413.0444455604
83415.0138428603
83415.2698977663
83412.5144185359
83411.2259902611
83414.5787490289
83414.7861421427
83416.5668309213
83416.2887947437
83416.1416004372
83416.5953116354
83418.6065221697
83418.7708415816
83426.6363018062
83426.2513385201
83428.9144832162
83429.2760497042
83426.7031787895
83426.3572600222
83441.2774226644
83441.6382141466
83459.4841082966
83459.4403087367
83477.2572332174
83476.8645907881
83452.3449762379
83452.9367903705
83462.7619138142
83462.1474216611
83435.2380245165
83437.0863008086
83419.5322270753
83418.694970483
83414.7146584072
83426.320596992
83418.3452012344
83414.0051801382
83394.110744213
83395.5718872369
83398.2756845018
83394.2300210453
83395.4067150027
83407.480866703
83440.5228086943
83419.3810774893
83423.8136495593
83449.2592601326
83436.8190763575
83419.3971100798
83402.1968920941
83390.4201253939
83434.7776860997
83407.3274921697
83394.6216973532
83395.1420136183
83382.7519032048
83387.0986120252
83395.9600084097
83393.0406553848
83393.242406221
83395.4218910018
83402.4385764597
83401.3631053301
83400.7597055243
83401.1109667334
83405.5930921451
83405.547050703
83405.5011222867
83405.4546537605
83405.8413413099
83405.5285162721
83408.8740063816
83408.7170341053
83409.0090342945
83409.0742632374
83411.7199436678
83410.7156194897
83411.3509096757
83412.6333934462
83410.9442848819
83410.3675759077
83410.0745014089
83409.9548362939
83410.2029562836
83410.5902280767
83410.4380215319
83410.0328512869
83410.5341876949
83410.5781646742
83410.5489537737
83410.6696301018
83411.0337960129
83410.8173504209
83410.6156276981
83410.8269098491
83411.025692057
83409.8900365314
83409.347095275
83409.6729023004
83412.7000129285
83413.1111985537
83411.354525134
83412.1682903385
83413.5182089394
83411.1955998065
83412.2034721331
83412.7852161255
83416.9000652079
83417.902453823
83416.3741279314
83420.370862821
83398.9604831491
83410.6837303712
83417.224103796
83413.1256814867
83419.3570006123
83421.1855230074
83423.9000272581
83421.9485870754
83429.0028544599
83430.472674261
83429.3220357197
83429.0190722883
83423.3044355558
83425.4448083518
83422.0344693028
83420.16531742
83394.0373389271
83409.6081433652
83421.1126933154
83433.7076382193
83431.6215745481
83411.8954322788
83417.8190801675
83436.1327675913
83443.6153787759
83449.5489968002
83435.114459769
83438.131754095
83444.5605202733
83441.1511058964
83445.1243451584
83446.7017881994
83464.2262821555
83463.6263837622
83485.4473026838
83485.9069431632
83503.879898607
83503.5659053175
83508.0705398054
83508.3979681199
83497.9366783436
83497.5175619262
83537.3181433289
83535.270259685
83500.5341614037
83501.1017995635
83505.8527220005
83506.5824852159
83480.6106968123
83479.3124828115
83451.9220551924
83453.414748813
83438.0118172803
83436.8330159577
83418.2775709377
83417.8362063027
83403.7728088009
83404.0302527987
83373.0847133944
83372.8939091877
83364.4249151734
83365.6644771261
83364.6505255808
83363.809788396
83362.9606760559
83366.0468211918
83364.2488610687
83362.1941064699
83359.3152679018
83357.7124326177
83389.1361603842
83388.1582970414
83380.2956194645
83375.6706763482
83405.7402175787
83403.4918486857
83406.0474835012
83397.4884484791
83404.6257020267
83387.87665847
83366.4991052381
83370.0752785664
83354.4876697858
83392.1397580568
83366.0981289746
83356.2841647124
83425.8277152558
83420.7762772161
83365.3585261726
83370.7625128913
83393.7540365765
83393.4812920642
83369.6539119845
83362.4426480255
83407.7829920362
83380.7672369337
83351.3764642086
83359.4673927772
83383.1050446538
83374.6060094216
83367.4050434646
83368.6690141766
83352.6515516229
83367.6828649759
83360.9447132834
83354.4134189391
83353.2470081974
83340.3890638519
83338.6867915009
83349.2791846404
83323.788868193
83330.6121343798
83313.08062336
83292.9202054825
83318.3850457901
83319.9564620471
83358.4533261514
83358.3901004694
83383.4696222598
83381.727115737
83393.741576937
83393.328542056
83392.7003482971
83393.2319690548
83400.8453869973
83400.5370227793
83400.7961329279
83401.4730056517
83402.1843435988
83401.424548931
83405.9332640075
83406.3172478658
83406.8444510498
83406.8270960954
83409.9522894136
83409.5612964568
83410.0978650261
83410.2811802528
83411.2655540718
83410.7562430131
83411.6854641888
83411.0223532537
83409.9175611571
83410.8638068852
83409.1469852273
83408.1020690407
83410.6237070198
83411.3905949005
83408.3480563061
83407.6984940599
83385.2746115278
83406.9818296772
83422.029613034
83406.9605666178
83400.9532226052
83426.9160677704
83453.983072536
83476.3588262102
83477.7395394343
83455.4516911343
83452.4113830274
83475.244772022
83467.9213924562
83448.4325099441
83447.5212743872
83463.7047285554
83461.656523207
83444.3010471374
83430.4304333636
83441.9896545704
83432.4131026489
83432.9123364136
83430.4755792729
83430.5474301438
83433.3531893035
83431.5695209977
83440.4028467436
83441.240317921
83444.0071363383
83441.785641624
83449.3836261122
83459.024577061
83458.0677883443
83454.6082868372
83450.9393143938
83449.7713331294
83454.696175147
83456.182184883
83482.9473057077
83480.7325458031
83515.4416665411
83515.0882885843
83545.7763067332
83547.9315569725
83556.602049255
83553.8107272014
83610.9738647657
83612.3061732324
83596.9377477641
83595.975424396
83572.0443117399
83572.7996270312
83544.7284827757
83544.81280586
83560.6566816286
83559.669073143
83513.1403772102
83513.9186894068
83475.0848527878
83473.7933935651
83444.5131350742
83444.22532303
83424.6276953579
83425.0927054979
83408.8893663092
83408.9082411113
83391.5035844549
83391.5191277588
83371.0215682377
83370.7396528204
83344.7508851393
83344.8949443533
83334.4746164113
83334.0932124831
83333.533992071
83334.9316400313
83334.2065895851
83333.3958541026
83334.1106635866
83336.4863090709
83337.483077014
83335.8900285459
83336.9150018711
83336.677887567
83334.4106746024
83338.2394374359
83357.7826148787
83350.5119896028
83363.4598795572
83368.1859092082
83378.2087357332
83372.0853157338
83363.9518813658
83352.9729318009
83366.1265226128
83379.3866889569
83379.9765665513
83365.4874666386
83359.9453161857
83358.6978182571
83379.5457895404
83381.1405761464
83394.0889772378
83392.8479620356
83393.6345310324
83395.0738549884
83395.6883746682
83394.798115042
83402.3899259308
83402.7799308143
83404.0988106612
83403.7152596619
83406.1950093318
83406.8490781458
83401.6095885122
83400.2499132073
83402.8089288779
83404.3779021709
83395.8429623231
83388.5782317052
83396.794631822
83405.3704046803
83423.5862573069
83446.1823699591
83418.6037300249
83424.5005219806
83444.2834778871
83457.6469172541
83421.3925543672
83416.8542650843
83423.346287554
83433.2311240998
83416.1280134642
83417.2048266054
83414.1761833833
83414.0003101035
83413.7283546412
83412.5824269392
83394.3427028827
83395.1723202974
83396.282649628
83396.4929371929
83405.6171033957
83404.7894532419
83414.2958003237
83414.6964007278
83431.780319319
83431.2104281185
83454.7814416606
83455.6780416017
83494.2381339249
83495.2537075172
83551.6557923019
83549.4437790585
83609.7635785455
83610.0573401987
83670.1318309616
83671.5733322102
83709.291580896
83706.2915178184
83725.2501372419
83728.3729277618
83721.7446479507
83718.80185375
83684.659380793
83687.2526703339
83637.9438313449
83637.5523363812
83571.2625278717
83569.6856496188
83510.2497624136
83512.1354969464
83460.5327008597
83460.5292723914
83426.9943647635
83426.1299622062
83405.7183311563
83406.6242503324
83381.9377881196
83381.2393837362
83347.5709711828
83347.7329022353
83311.0440906288
83311.942417441
83316.1870310497
83315.9920854188
83290.8262152282
83290.4666618529
83293.8865147761
83294.6404479914
83303.3312158722
83307.2001967971
83306.4514967357
83302.6330229884
83276.4741877235
83282.2575481903
83284.9501975098
83278.4674196453
83282.941543624
83289.057375462
83310.7661446689
83306.5453899343
83310.4431065493
83314.4407528644
83319.1859796109
83314.2702427687
83317.0669027184
83326.8690416654
83325.4516741086
83316.5547344511
83338.145433561
83338.253786575
83334.1450532031
83336.8864596777
83334.26983648
83330.1531484291
83320.9608820075
83322.6304795145
83325.2143451983
83326.7944704104
83357.8461993978
83358.0613351953
83379.9963320859
83379.4839384739
83384.2749225326
83387.3934081475
83389.5712305361
83382.3935179954
83380.5016889948
83381.6784875306
83382.7929694028
83384.6894324852
83383.4487938576
83388.05109616
83391.3526860985
83372.2435121083
83374.3183098455
83388.4674190182
83384.3548897514
83389.3335529781
83391.462976215
83398.5022153905
83393.0585328736
83399.370958996
83399.2118283215
83403.9852112405
83407.0393591285
83378.8570607447
83383.6693030667
83384.4312400031
83381.0782259222
83381.3266843509
83383.8167355486
83399.4543054432
83397.6676018323
83376.2271009935
83371.8526231111
83373.2123337203
83373.9554100522
83374.2866956233
83373.8209712786
83381.136592587
83380.901281615
83387.2845796639
83387.9929340287
83401.1885957411
83400.8065429606
83425.7665590401
83425.4878402945
83443.9355223058
83440.5049543602
83448.5095515282
83451.5071795564
83476.4195514154
83474.9943609826
83504.0552818845
83505.4111940134
83539.5913159562
83538.6541500102
83583.6729900514
83584.8574314876
83628.8354783211
83628.1557752099
83670.0277811873
83671.3249425302
83708.5376896604
83707.6439166689
83738.1309910838
83739.3500743197
83756.0429493891
83755.9623066904
83768.9204533829
83769.045686695
83775.7724569116
83775.3303410821
83769.9710520863
83770.402673609
83754.6168620327
83753.9482270941
83731.2586152354
83731.6827737704
83704.03551689
83702.8392565055
83664.0556437414
83664.76825553
83620.8859792335
83619.7507767153
83574.2256143238
83575.3539224008
83532.3574610634
83531.4018151251
83491.2298770873
83492.0635601428
83462.4760757798
83461.1437337689
83439.2195432981
83440.3413717083
83418.8464277765
83416.5519116843
83408.4575779773
83411.3047945722
83418.2676477217
83416.8291902453
83456.6426306562
83456.5911100308
83475.8980578033
83475.9699192146
83510.4059278504
83510.0064069556
83541.3290894002
83542.1794675318
83586.5500792033
83586.9182628988
83620.7431592884
83621.4185104278
83667.7156395838
83668.0705183019
83695.1768978212
83694.8053154118
83720.6553414997
83722.2380236422
83739.4196767148
83738.9424798284
83758.281285739
83760.0773518564
83763.7249020944
83762.2695802695
83751.4061537193
83752.6801239448
83742.9110099952
83740.4291741781
83727.487278489
83728.1165894239
83706.932901943
83706.211525286
83665.8555288274
83665.2863657085
83634.6079370566
83634.5451881176
83590.3003433098
83589.3276977087
83555.7921083036
83556.2365828961
83517.0878770248
83517.3086664156
83492.6112390338
83491.9378731331
83449.0223640542
83451.9352953717
83450.1563728839
83454.585276738
83452.1764939467
83450.8834809624
83445.8318681606
83431.7830016772
83410.6127434258
83386.377738686
83371.5812536844
83369.0469259294
83377.6199852918
83366.3008665719
83361.4297454724
83360.8890072253
83363.3636066252
83363.553465398
83324.002315855
83326.489628183
83324.2714440871
83322.9266808198
83333.5900925157
83328.0903313896
83369.266088956
83363.4913811155
83367.7079980584
83372.2872771307
83373.5399398335
83369.572668237
83374.4418735085
83379.8216121304
83340.6281462628
83336.5340977293
83337.8855700548
83342.5807110794
83342.2533362338
83338.8579975591
83334.1353497085
83336.508498574
83354.6184145543
83350.1184792859
83347.0949115437
83348.8444969668
83348.0444753832
83346.7315629511
83350.3336182268
83350.4757174519
83352.0766680986
83350.86341518
83356.7792877814
83357.861425658
83364.6465699672
83361.3878588053
83364.2699312738
83367.0653438852
83381.4148319149
83380.7537114799
83397.0664273611
83396.8490262504
83416.9230585886
83416.6578611702
83444.3420395563
83445.8905246125
83484.5099893132
83482.7185121074
83536.9663046948
83540.1819883775
83597.2321602443
83593.1206642802
83646.7858179337
83651.8629794797
83694.3421058604
83688.8446914686
83723.4871268384
83729.2075368932
83748.802423929
83742.9164769064
83756.411189279
83762.20141756
83765.3003739237
83759.6204272161
83754.1216713252
83759.731118425
83747.4573212349
83741.7675817859
83716.3039283431
83722.1530553697
83689.2545418114
83683.6909071678
83636.9293915744
83641.7431827689
83587.2471561858
83583.3481920516
83524.6458742849
83527.1392535331
83474.8592889055
83473.2526201863
83431.8639295251
83432.5333436027
83406.0475715173
83405.4977209961
83387.7866437973
83387.8558373804
83375.7383673768
83375.6463609435
83369.4369636019
83371.2234108547
83398.8803685439
83395.7950201242
83394.9573948739
83396.5125712899
83349.2621194974
83348.0895603671
83299.4045116681
83297.4313929371
83249.0528470214
83252.6865784157
83277.5435832152
83276.1063299256
83249.335645571
83250.407370191
83265.8273805914
83266.4725381647
83252.6761234229
83250.9455788158
83262.9042351158
83264.5036694855
83249.6608477596
83247.9131816621
83260.4557085345
83266.0156157389
83269.5979398796
83263.0373340472
83267.6561177577
83274.7892794406
83278.6196442575
83273.02944307
83275.04189908
83276.8048133705
83295.0713335589
83290.2968997204
83292.2206132541
83299.418857132
83299.1480465098
83294.1343015643
83294.5749973537
83295.4375422244
83315.5539418374
83313.3165261886
83311.4469668442
83309.267109511
83305.193083802
83312.112961287
83296.9961857255
83287.7418254603
83287.3994986076
83291.0755739328
83295.3313539086
83298.9860023939
83296.0739751677
83294.0024054482
83289.7664336714
83293.7476678471
83327.6106930028
83326.0657067676
83326.6904694511
83328.3078329553
83359.8071060033
83361.4767166698
83368.4725177686
83322.5484618732
83322.1213028744
83325.9439258836
83327.8518931119
83290.704799127
83287.5120722064
83284.0295320837
83287.5029970079
83278.4153731467
83276.1304855856
83281.8458329615
83276.8382474084
83314.6089701629
83306.3835023716
83307.4771526264
83311.3814554089
83333.928967863
83334.5306927019
83335.0853607173
83337.8571070517
83305.9970240222
83303.3402712777
83298.2873001959
83302.2942918229
83298.3827389135
83292.9722296062
83290.4079249259
83295.0990319568
83286.7776525538
83282.3756293535
83292.911510611
83299.7959117577
83291.1019410294
83289.3034862501
83286.9379321343
83287.2801356586
83280.7982945335
83281.0447475115
83271.4864622178
83271.1952890854
83256.3189723069
83257.802175361
83255.5047086615
83255.1652579087
83242.5571319696
83243.7699440546
83228.0895402188
83227.8361715518
83202.6255770604
83203.8517245728
83180.0263757645
83178.4761240491
83169.7353743291
83170.0305349723
83154.899036603
83152.6111067736
83136.7307303945
83139.3035180256
83131.4018593059
83127.424262871
83128.2351125173
83132.172314571
83134.6083688257
83129.6363323387
83132.1649563877
83137.4037720534
83139.6147110207
83133.6475428493
83131.7222030744
83138.1212306094
83136.5720902093
83129.9403680122
83123.9940454593
83131.1326245646
83127.0318989737
83119.7409642154
83112.2349413972
83119.7481410929
83116.8262614781
83108.9973317
83102.4935512994
83110.2493170713
83107.3412515065
83099.4483877448
83094.4269125995
83102.0889653934
83101.3942020601
83093.2849184803
83090.6605792968
83098.7832666229
83097.7326184558
83089.9819997899
83092.1223636139
83099.9370043698
83101.0819011704
83093.0294470453
83097.3018539656
83105.3013739817
83106.6758698812
83099.0605871653
83105.1001597761
83112.9694965328
83115.9070000929
83108.3989047187
83114.6692359615
83122.0162580574
83124.5161781493
83117.4230903528
83122.2971103832
83128.9201506388
83129.7761534241
83123.4795814557
83124.441640019
83130.3438791103
83127.6167804669
83122.3391549248
83119.9604489313
83124.9308912712
83122.5609714414
83118.5583682704
83117.7731847458
83121.8399264898
83131.9035917321
83129.2783324445
83147.3653990013
83149.6288919039
83167.0527114325
83166.9082159447
83177.6298331381
83179.1218061853
83208.0884083946
83207.40055421
83226.5246993581
83229.0214750174
83246.9970774778
83244.8003580962
83273.8746792093
83275.3399536232
83309.2946538841
83308.496725083
83340.5301040793
83340.2035423771
83342.5460592871
83342.2552936708
83304.5842165324
83305.1610297543
83266.3665427492
83264.7826425746
83254.7616465268
83255.4100195701
83243.2467324399
83241.6906653387
83200.3588393781
83198.8305263112
83193.0715709595
83193.1358770412
83182.5090135024
83183.506051249
83182.4726887451
83180.8590106155
83190.0454904354
83191.1802703517
83204.4525840688
83203.8530991971
83214.4632014005
83215.8506378883
83227.7750541405
83226.4144580533
83232.4333777988
83234.9468323171
83241.8603878002
83239.4786496333
83241.0653690727
83244.4202840833
83248.9929221895
83245.8495376059
83244.3928717712
83247.6794057323
83248.657728652
83245.1159875787
83243.3643589485
83245.5371963009
83250.296944542
83247.2099042203
83245.5483814459
83249.1524178861
83245.7090980517
83242.8971776761
83241.9493766462
83244.4826898024
83250.0933303933
83246.5386153162
83248.256772448
83251.5444541665
83246.5542457325
83244.3397506395
83246.4446697135
83249.5393506304
83251.532193305
83248.4918426697
83251.3765622651
83254.7839740715
83251.2042997088
83248.116250461
83249.9902988402
83253.0678765108
83251.8080567804
83248.294068139
83248.0998014202
83250.6588397732
83244.2914337484
83241.443930825
83236.2325168548
83237.869286845
83226.0319813475
83224.429026169
83214.0692074248
83214.7833676319
83202.0740363351
83200.7673832096
83191.6419962253
83192.7667967644
83191.7967958656
83191.2687667841
83199.6982070101
83199.5536326854
83204.0607008777
83205.4392461752
83246.7989530038
83248.2067985501
83250.1676057296
83248.4757267889
83255.3550170978
83256.0121279211
83258.777561436
83255.8743787382
83266.5738375152
83267.6643567401
83285.5645575103
83282.3672471807
83306.5426034403
83306.4794803596
83327.2570780873
83324.8707293723
83347.3541384501
83347.0761530777
83362.798622006
83360.4041297224
83374.9588343099
83375.7124262992
83384.649858641
83381.9514749752
83387.6433141113
83389.511279299
83394.9798394219
83392.3564052366
83401.8936276798
83404.6253526033
83405.6747791346
83402.6025270149
83398.7228827277
83402.2660988761
83403.2522097722
83399.8241780703
83410.6010349984
83414.4649736476
83414.0697876934
83409.8086651277
83398.4036415574
83402.2332347141
83401.7119088031
83397.9470943919
83405.6845306979
83410.0284558159
83408.0471181957
83404.722828835
83394.9245833814
83397.4559958671
83394.9249403089
83391.8190846431
83389.2331075081
83391.9409018278
83387.1188399314
83385.4757077534
83373.7283083695
83376.5295271935
83365.4949309851
83364.8007322369
83350.2639460926
83352.566579641
83336.4886187603
83336.8040273911
83315.0688381237
83317.1865892539
83295.7903120738
83295.8961855792
83270.1861354987
83273.527135947
83256.7545337361
83255.2064208094
83246.3138274805
83249.3270078229
83247.6499597146
83246.981513712
83242.1348781153
83243.840254645
83310.1748811885
83307.5091371961
83303.6224803864
83305.0136562162
83304.0996437747
83303.7220342958
83349.0320399441
83349.2407814536
83359.425885495
83358.7158662409
83378.0122790184
83379.2111480671
83416.4955135401
83415.7932133349
83333.5141251936
83336.9836425149
83386.2235925363
83383.0866677547
83443.5088261104
83445.5766497668
83494.706753253
83492.7603864421
83529.8726741056
83532.1949347399
83555.2010328421
83552.6330374989
83569.6684216516
83572.8241946358
83578.1498487771
83575.4999959062
83578.8923181052
83581.6321645614
83581.4268080664
83578.5552965617
83570.4652681554
83572.9320996325
83562.5473940533
83559.777788184
83536.0163247497
83538.358429421
83505.2394428022
83503.2196789459
83454.7856825367
83456.8770871653
83398.9769737105
83395.9880984476
83344.6472217388
83348.2179615803
83320.6506381262
83318.0123159385
83313.9552716139
83315.0724804532
83308.5483833427
83308.3031601286
83253.913690984
83255.0555682797
83266.9836932418
83266.6841135055
83275.8493296624
83276.732795863
83282.9762976301
83282.8113410952
83304.8459647389
83304.4098397795
83312.4381450163
83313.4009564879
83310.2524974809
83310.4135571964
83308.7141100616
83308.8388392033
83349.2833119861
83348.2683647588
83357.19725655
83357.2377321893
83369.7877558797
83370.1809776871
83391.1454239019
83390.3531841244
83427.5455094085
83428.047272108
83482.4941438813
83483.6131155203
83545.0037166445
83542.4209211121
83597.3571091685
83600.7031559663
83641.9721487437
83638.1806981702
83669.8989379569
83673.8160361475
83690.8094270685
83686.7864156554
83698.8206376496
83702.6814766597
83704.7337848057
83700.9090010819
83695.9600144222
83699.7779074067
83689.6404426743
83685.7817969016
83662.5481701005
83666.5773942447
83635.99072577
83632.2600055322
83586.712455658
83590.1370519058
83533.7649340624
83531.3963153314
83469.4850792249
83470.1181704566
83476.8015131301
83484.7212594086
83495.2509746988
83511.4502173267
83522.5202959484
83516.0632354267
83502.9714467902
83492.7408668894
83478.1826221415
83465.1490814561
83456.0507593387
83447.9439281828
83445.6083875205
83443.7039143691
83446.8281857087
83448.550732906
83455.6744162071
83464.0528900039
83472.569268237
83478.9677562231
83477.7387670215
83470.5679289277
83447.6373079591
83407.4080908508
83377.5893370702
83356.9646678625
83270.9353885549
83269.0967877754
83267.4011981877
83324.3137245422
83313.6133647107
83321.8908648954
83275.4630040814
83270.7954265791
83287.6009626878
83292.421198179
83273.0901707397
83270.8611709322
83271.5536820023
83273.0465597643
83260.9810347177
83265.8591103139
83256.6729582019
83236.4461068507
83242.8719481094
83256.8794888944
83266.1181645723
83274.6753615147
83269.5157181341
83266.5748665833
83281.6665390878
83280.8074366933
83278.9996679465
83276.9546592557
83269.3847680015
83272.6793807914
83264.4316808016
83259.7059985599
83253.0596109651
83257.8609634387
83248.6930835511
83244.715091011
83248.2035150073
83255.8748425064
83247.0059310411
83243.7846860134
83240.926898549
83243.1992769814
83232.8081808816
83231.7219791282
83221.3831224052
83221.5752987773
83200.4269365956
83201.3182172106
83186.968214755
83187.8759443642
83168.962536915
83169.9233611173
83152.9664717461
83153.3928444002
83128.3989789852
83128.167268661
83101.0594128191
83102.0498468595
83091.7346762107
83091.1613902009
83089.2552643895
83088.4470220278
83091.7778063379
83093.3365258993
83128.1681136868
83126.8707584816
83228.3583953129
83229.498677186
83366.8615030939
83369.8585694858
83427.5681362052
83424.0100024501
83369.8718492399
83369.8311078611
83236.2260160216
83235.547788298
83131.543665427
83132.7294341359
83057.8096738758
83057.3144465391
83003.3093214524
83003.4597112472
82962.741566881
82962.7007428765
82934.0340856751
82934.0497000102
82910.671337412
82910.7279791274
82895.9185081759
82895.729845114
82883.1704610253
82883.3415737687
82876.4386452595
82876.265031336
82871.8181457858
82872.061663526
82871.5169237485
82871.2893892638
82875.1574597608
82875.3702424692
82881.0823720501
82880.8592978818
82892.8461988967
82893.0311521591
82907.1530923765
82907.0075038202
82929.518102986
82929.60492201
82957.7787259646
82957.8193302764
82998.0302958813
82997.6490845251
83051.9145646209
83052.716184409
83128.3907791677
83126.9339484779
83232.6193324583
83233.6966662487
83368.4246892178
83368.6966393729
83418.9897475213
83422.4096459339
83359.2353477483
83356.658094152
83218.929552338
83217.3054315458
83117.7810915833
83119.6011085144
83088.3052126489
83086.617014085
83086.0900450249
83087.2178480594
83093.4482093453
83093.7738185188
83107.0996847493
83106.4569118368
83139.00802386
83139.6563026893
83156.3670132635
83157.8319976254
83180.0189229959
83181.0052575821
83184.8148947827
83185.0528705081
83201.2528359881
83200.745165917
83216.4307001534
83217.4616130157
83198.9145004858
83196.4380190078
83175.8937811678
83178.3363163922
83165.281550296
83162.9914244474
83144.884915673
83144.90555144
83112.7917027567
83112.7482109423
83098.6373778864
83098.8895598139