/*--------------------------------*- C++ -*----------------------------------*\
| =========                 |                                                 |
| \\      /  F ield         | OpenFOAM: The Open Source CFD Toolbox           |
|  \\    /   O peration     | Version:  2312                                  |
|   \\  /    A nd           | Website:  www.openfoam.com                      |
|    \\/     M anipulation  |                                                 |
\*---------------------------------------------------------------------------*/
FoamFile
{
    version     2.0;
    format      ascii;
    arch        "LSB;label=32;scalar=64";
    class       volScalarField;
    location    "400";
    object      k;
}
// * * * * * * * * * * * * * * * * * * * * * * * * * * * * * * * * * * * * * //

dimensions      [0 2 -2 0 0 0 0];

internalField   nonuniform List<scalar> 
208838
(
0.0150064003078248
0.015004617199702
0.0150016066232768
0.0150014163135552
0.0150020706133069
0.0150019852161211
0.015001838237205
0.01500182086224
0.0150026528740988
0.0150028172034672
0.0150031729462278
0.0150035346429053
0.0150034574175998
0.0150043954530112
0.015004123686914
0.0150038957043787
0.0150036771374303
0.0150035496070662
0.0150272389381825
0.0150254892543844
0.0150281277621182
0.0150271810423189
0.0161404817604005
0.0162313391322728
0.0163297765501267
0.0163504212701804
0.0156039767255967
0.0155962796925794
0.0155550380234788
0.015512083077227
0.0156797256465954
0.015015300229766
0.0150135273027669
0.0150126757137916
0.0150110505036687
0.0150103819902017
0.0150065074879403
0.0150071336468118
0.0150076327266477
0.0150076489273513
0.0150075463007876
0.0152913916115865
0.0152993535497512
0.0153095416794492
0.0153183841086872
0.0153097159451346
0.0153026482891873
0.015712267010913
0.0150170270561516
0.0150090044663587
0.0150025616910345
0.0153281668413975
0.0158467498726095
0.0150144489596
0.0150260690060258
0.016506308067258
0.0165336076303612
0.0150240316706437
0.015013006896589
0.015003016058085
0.0153625873881888
0.0158947678340026
0.0158539655466635
0.0153233662409874
0.0150012847610338
0.0150092168352257
0.0150037745648773
0.0150016129285092
0.0150023700118001
0.0150037642755327
0.0150036987030364
0.015002392472291
0.0150002870781514
0.0150007961790142
0.0149995354339901
0.0149998685896257
0.0150001486163427
0.015000356620675
0.0149999519151222
0.0149995896347164
0.0149994372917863
0.0149993269022832
0.0149992629962611
0.015000214974508
0.0150002123806375
0.0150002139710685
0.0150002103827535
0.015000132796168
0.0149993190288869
0.0149993706141526
0.0149993643343946
0.0149993588984636
0.0149993587123299
0.0149978971573195
0.0149978905350944
0.0149979372039927
0.0149979904590266
0.0149981920105007
0.0149967635936842
0.0149965573291794
0.0149965057719319
0.0149964581096379
0.0149964973882232
0.014997047549765
0.0149971752224779
0.0149973745220413
0.0149977298403721
0.0149984459008423
0.0149979150870141
0.0149969921329472
0.0149963820057096
0.0149961567598698
0.0149959174216603
0.015003759136681
0.0150039572009045
0.0150039765810578
0.0150041095099415
0.0150053864232011
0.0150733987299166
0.0169447767548218
0.0167918793528645
0.0169420624845099
0.0171054947647515
0.0171395768273117
0.0150400277575671
0.0150360844406417
0.0150396905123562
0.0150374451345493
0.0150534712627244
0.0150567944501223
0.0150530091663115
0.0150576951911295
0.0181525853590021
0.0180986817640878
0.0178494050277339
0.0176184652210739
0.017726483585171
0.0150857731077264
0.0150938194079458
0.0178937650614525
0.0170477133536986
0.0150839643644419
0.0150301747490555
0.0163089935140525
0.016292943017499
0.0150322311989616
0.0151175461185498
0.0172975945153932
0.0172888741537382
0.0151706617810913
0.0150818039992994
0.0171169568481056
0.0164077599964401
0.0150229809767854
0.0150220672663996
0.016249083966121
0.0157551047034699
0.0152666637379928
0.0150021297003882
0.0150101860056798
0.0150066590804696
0.0150018325034303
0.015000658976172
0.0150032080349932
0.0150014453676849
0.0150003959289967
0.0149998675469981
0.0149996224034698
0.0149989507272194
0.0149995981975492
0.0149994441779634
0.0149985588178656
0.0149984280722832
0.0149993524302797
0.014999231709701
0.0149982416847032
0.0149980140612522
0.0149978337479841
0.0149977863704878
0.0149977453364885
0.0149977417250831
0.014999194187384
0.0149991958309255
0.0149992027121825
0.0149992142532202
0.0149991783305664
0.0149992202299292
0.0149992471647282
0.0149992365569456
0.0149992310473488
0.0149992294754867
0.0149979642462679
0.0149979688327965
0.0149980014595978
0.0149980485563593
0.0149982014914484
0.0149977647281006
0.0149977356193676
0.014997732646586
0.0149976265738088
0.0149976352758638
0.0149967580007194
0.0149967537686522
0.0149968450578945
0.0149968645322558
0.0149969755564185
0.0149973084571239
0.0149974068648315
0.0149974493666517
0.0149972574683401
0.0149972550327438
0.0149964260898736
0.0149963327682182
0.0149963987371722
0.0149963197512828
0.0149962998227252
0.0149977802740826
0.0149981293622584
0.0149984045218943
0.014998194453538
0.0149983179903517
0.0149974528325842
0.0149977212081901
0.0149979893456342
0.0149986030281074
0.014999417506535
0.0150077540567881
0.0150055605448449
0.0150056307997067
0.0150058762983219
0.0150057447419395
0.0150104419666799
0.015010599603715
0.0150103468758328
0.0150098603853505
0.0150123533195643
0.0151013944874637
0.0185706238569018
0.0184929028274622
0.0188180591882583
0.0191651257038821
0.0192418709640528
0.015073077452258
0.0150692490187168
0.0150741071460618
0.0150700884572423
0.0150910245168204
0.0150944888978054
0.0150884711242853
0.015090616020386
0.0205321446952998
0.0204279115439814
0.0199596329496965
0.0195163626744655
0.019546118930393
0.0151202479212763
0.0151180804220107
0.0199527306173351
0.0188532378050666
0.0151055315449515
0.0151262804731223
0.0192939774481405
0.0193265560285365
0.0151967183227309
0.0151807948390593
0.0182361287997398
0.0179539668395984
0.0151034915501663
0.0151528882261279
0.017873073448313
0.017010244408275
0.0151206125431458
0.0152863936274665
0.0168979189467036
0.0161215543970712
0.0150379619242956
0.0150309605698746
0.0150119425505881
0.0153769493653699
0.015984491186312
0.0157353336527239
0.0152922447687915
0.0150072702437682
0.0150217938664974
0.0150125059727129
0.0150041949701523
0.0150019551859105
0.0150071266327584
0.0150027674398502
0.0150004460430118
0.0149999534022584
0.0150007993200769
0.0149993672369897
0.0149996810472155
0.0149996959777275
0.0149992733283322
0.0149989026909175
0.0149996004855929
0.0149994152696806
0.014998522317879
0.014998716751648
0.0149994697377582
0.0149992790133114
0.0149984212874373
0.0149988332670188
0.014999428427169
0.0149993626883594
0.0149993703706179
0.0149993600845518
0.0149993559545471
0.0149993545747836
0.0149984309027287
0.0149984354847587
0.0149984559667179
0.0149985107526909
0.0149986332618421
0.0149988348618916
0.0149987901888462
0.0149987549434355
0.014998698106349
0.0149986964924234
0.0150002603245692
0.0150002476315766
0.0150004306320232
0.0150003487389568
0.0150001703990588
0.0149986317824055
0.0149988387706751
0.0149989390787967
0.0149987124647417
0.0149987341505771
0.0150018537240864
0.0150017872062398
0.0150022667887904
0.0150019486917276
0.0150013885515203
0.0149994519033242
0.0149999021713782
0.0150000830932908
0.0149996501009682
0.014999664961435
0.0150051167646939
0.0150050341180739
0.0150058886165097
0.0150054895009061
0.0150045780572109
0.0150020066584728
0.0150028158318656
0.0150033542493111
0.0150027703302687
0.0150029553913802
0.015001850307024
0.0150021581176015
0.0150027068939231
0.0150031676524115
0.0150035593802403
0.0150112745641766
0.0150116215626272
0.0150115261593804
0.0150104296207439
0.0150101565073546
0.0150185365601078
0.0150187489378294
0.0150189414400205
0.0150178446931582
0.0150197582780806
0.0150309174831456
0.0150304154159076
0.0150323475650912
0.0150312296645385
0.0150310562888444
0.0151098206373518
0.0151100292593074
0.015117072224227
0.0151141661664437
0.0206138377747032
0.02119140750003
0.0217978371215803
0.0219323325284386
0.0234773049208081
0.0233094029881174
0.022543243322097
0.0218108207079787
0.0151417703229707
0.0151442189863336
0.0151360609219025
0.0151318233321544
0.0150495770847534
0.0150496319421552
0.0150521309896476
0.0150490610452737
0.0150470505028291
0.0151693103438568
0.0217563740946046
0.0225308834282142
0.0151523264407974
0.0151322446542044
0.0211783488968612
0.0219871899998982
0.0151395987413468
0.015228323391242
0.0219969432650426
0.0205799513409063
0.0152131918447403
0.015143957354193
0.0199866521867656
0.0189086402190426
0.0151228691508993
0.0151876366289546
0.0188430119933037
0.0189967602465685
0.0154509258468989
0.0153527411171283
0.0178780319428894
0.0178177181309732
0.0152954028747866
0.0151692620986633
0.0168980488084246
0.0160817828938194
0.0153854142171161
0.015014109754147
0.0150383830229705
0.0150247295390282
0.0150091693652595
0.0150107724095473
0.0150218753963777
0.0150224811192095
0.0150255989173715
0.0150286442218448
0.0150254895998821
0.0150270267404591
0.0150234407939366
0.0150143534391819
0.0150205223146251
0.0150305826291609
0.0159717196843702
0.0150161838662655
0.0150090040923045
0.0150190991290771
0.0150204612721321
0.0150058550369675
0.015002265734945
0.0150040744698524
0.0150012622450296
0.0150005629776607
0.0149999840559292
0.0150005541056677
0.0150002416514885
0.0149998196750141
0.0149997920199029
0.0149995441926439
0.0149993205302064
0.0149997607195563
0.014999660201922
0.0149991696982839
0.0149995183136411
0.0149997922905838
0.0149996161475984
0.0149991411033056
0.0149995686304425
0.0149997818345502
0.014999622642174
0.0149992912677867
0.0149991105862559
0.0149990235723999
0.014998971860095
0.0149989636121504
0.0149989594944749
0.0149995235945274
0.0149995247990351
0.0149995275502734
0.0149995370296061
0.0149995488758793
0.0149997276610801
0.0149996813045788
0.0149996776013691
0.014999673521126
0.014999673920573
0.0149994907371152
0.0149994905602792
0.0149994885559772
0.0149995281257425
0.014999581745149
0.0150001866136254
0.0150001996870078
0.0150001841976486
0.0150001570781548
0.0150001591634041
0.0149994337603215
0.0149994370021375
0.0149994817819098
0.0149995168099618
0.0149995274978132
0.0150010691446435
0.0150012596026158
0.0150013544962087
0.0150011889699655
0.01500119850726
0.0150049825286432
0.0150049308817597
0.0150053610663996
0.0150049675371883
0.0150044836890721
0.0150034623936168
0.0150039548883097
0.0150042848749291
0.0150038378059994
0.015003893066628
0.0150107290258447
0.0150105805824101
0.0150114893550061
0.0150108060017288
0.015009936068573
0.0150072502736521
0.0150082479018634
0.015008872918287
0.0150079561098037
0.0150081199804284
0.0150191540312684
0.0150188046140105
0.0150203839960021
0.0150194346507364
0.0150178488676303
0.0150141816861276
0.0150156824502369
0.0150163481746635
0.0150148829621858
0.0150151146868551
0.0150117392194694
0.0150114226723228
0.0150126429202343
0.0150117615270762
0.0150102540537551
0.0150242733237293
0.0150267458966287
0.0150280665498268
0.0150259273174059
0.0150264835401127
0.015023761893879
0.0150238868683869
0.0150257812710282
0.0150252100627717
0.0150237993023058
0.0150428539353913
0.0150456552254785
0.0150473540915976
0.0150443743824221
0.0150445083204438
0.0150749793268481
0.0150744603428418
0.0150779970563199
0.0150754044051457
0.0150703630526205
0.0150697571033642
0.0150758246114566
0.0150805363918565
0.0150761083126668
0.0150761609642437
0.0151578679785558
0.0151692968252957
0.0151786889803577
0.0151761580954348
0.0231072632073362
0.0240177709377244
0.0249680380706571
0.0251715584810936
0.0269413885629508
0.0267028411918796
0.0255548846986156
0.0244514543564942
0.0152118094252087
0.0152139938503694
0.0152049361815819
0.015188595736931
0.0151070163968294
0.015107042902875
0.0151113647499573
0.0151067946757877
0.0151009889420048
0.0152380802210024
0.0243164480410122
0.0256140103945374
0.0152217193585193
0.0151816236496406
0.0240117060649234
0.0254042850873229
0.0151871754785059
0.0152653213634573
0.025359029555924
0.0235826884237966
0.0152451944991725
0.0151830953189124
0.0225608730489996
0.0212014898894228
0.0151618991421453
0.0152833997923812
0.0211835385854787
0.0199414807670285
0.015234925454471
0.0155583319620254
0.0202889123475856
0.0201162576902966
0.0154339391381389
0.0153699825109696
0.0188698508412344
0.0182153780460066
0.0152273245077638
0.0151566319883006
0.0174564204564183
0.0166561771473513
0.0150781746132955
0.0150435411038889
0.0150157845075762
0.015373497134664
0.0160751597385431
0.016050664849408
0.0153594026413882
0.0150129576296245
0.0150455680357799
0.0150099648903159
0.01500174601485
0.0150003079577967
0.0150025627590912
0.0149988455096533
0.0150006093642973
0.0149998329065684
0.0149998458913224
0.014998078061687
0.0150002003402546
0.0149997201407625
0.0149997478557851
0.0149997771181421
0.0149998367768315
0.0149998195959367
0.014999655361771
0.0149998162543557
0.014999880293593
0.0150000346649377
0.0150002148646017
0.0150001776665237
0.0150000401412452
0.0149998462815209
0.0149998101027813
0.0150001408909199
0.0150000164200159
0.0149997504956476
0.0149996879515803
0.0149996782859968
0.0149996821234321
0.0149996810345686
0.0149997010058217
0.0149997204996688
0.0149997261651292
0.0149997324961938
0.0149996980258438
0.0150005342166014
0.0150006252804041
0.0150006507736204
0.0150006088043558
0.015000578719254
0.0150024679043645
0.0150025015167259
0.0150026681757654
0.0150023254270952
0.015002058922236
0.0150017841151922
0.0150019555928141
0.0150021289700159
0.0150019652916353
0.0150019843984013
0.0150056066801593
0.0150055389040764
0.015006032673732
0.0150054317975559
0.0150050121774921
0.0150109929861519
0.0150117562877201
0.0150129890531026
0.015011912408463
0.0150120870669447
0.0150118729913548
0.0150117211004135
0.0150126287726492
0.0150117823294636
0.0150108965283463
0.0150219001021118
0.0150233716184445
0.0150247682763353
0.0150231200881774
0.0150234646650395
0.0150224326066128
0.0150220997723691
0.0150237228485023
0.0150226493304792
0.0150212522021801
0.0150398818696154
0.0150418955886516
0.0150433100512209
0.0150408482578055
0.0150414925872578
0.0150373409933838
0.0150366905919156
0.0150390131868728
0.0150377892918949
0.0150355473378156
0.0150303399214907
0.0150325545120736
0.0150334997355876
0.0150312854703646
0.0150317654848817
0.0150579954461063
0.0150571803274484
0.0150601940508914
0.0150589951742612
0.015055975075128
0.015046323746905
0.0150500968005307
0.0150519808323471
0.0150486116099277
0.0150495318877565
0.0150803308715519
0.0150794966851167
0.0150827550957955
0.01508094926447
0.0150772324964953
0.0151087410107734
0.0151124597784378
0.015114196707282
0.0151109972299348
0.0151117819267182
0.0151060851768301
0.0151056163766388
0.0151090740297371
0.0151065325143879
0.0151014774996544
0.0151329103905557
0.0151380717226256
0.0151405558738438
0.0151371542846928
0.0151375900827355
0.0151384334187265
0.0151386040226508
0.0151429017829479
0.0151384818691724
0.0151331277601893
0.0152841184571314
0.0257483601262397
0.0259451430918502
0.0272709906046029
0.0286427101613691
0.0289159976391218
0.0152262953833507
0.0152413985205091
0.0152500970787667
0.0152482354477523
0.0152824466441846
0.0152839638701585
0.0152756716060762
0.0152614430897518
0.0308491821532453
0.0305453236968359
0.0289602963093419
0.0274131186102028
0.0271777369811832
0.0153380322832653
0.0153595096773171
0.0291657973823391
0.0273495307617327
0.015277906929684
0.0153175015850876
0.0295879554864146
0.029556602876558
0.0153231809471296
0.0152903300147763
0.0273451581172791
0.0257850595646033
0.0152382311591332
0.0152081777000003
0.0240812555039426
0.0241244959948428
0.0153927622916454
0.0153339969441825
0.0225755336966136
0.0234665185106071
0.0157400586320161
0.0156537873296781
0.0217737718564499
0.0215297104498085
0.0154972660070413
0.0153086597906473
0.0201013219470601
0.0191355263505467
0.0152555947687599
0.0152117384098293
0.0184253037789865
0.0171165658875759
0.0151008037863398
0.0151571305270477
0.0170852426655146
0.0161592748374746
0.015395796800292
0.0150107714266861
0.0150453645235345
0.0150244504403394
0.0150055677881647
0.0150048337318288
0.0150160777658744
0.0150081674609952
0.0150013716588585
0.0150006890059636
0.0150070685160778
0.0150006028209363
0.0149992371589677
0.0149993615217002
0.0149987573928611
0.0149989760792464
0.0149996387866573
0.0149994481152579
0.0149987604990606
0.0150001364657355
0.01499980125443
0.014999773609029
0.0149998942557993
0.0150003722029015
0.0150001127522508
0.0150002271197427
0.0150006191390109
0.0150028120269163
0.0150010901108366
0.0150001870545563
0.0150015712008714
0.0150009072164405
0.0150009121111835
0.0150006638792478
0.0150006603393403
0.0150006342316667
0.0149996796032019
0.0149996932956379
0.0149997087047399
0.0149998132738675
0.0149996244198651
0.0150016797396982
0.015000871977631
0.0150017769893278
0.0150011891950771
0.0150012901310961
0.015002374584638
0.0150025943467484
0.0150041268669888
0.0150055561462953
0.0150070866432681
0.0156782602896969
0.0155122124264985
0.0155555901098728
0.0155968423308896
0.0156038671698787
0.015309116777195
0.015318668861375
0.0153100728872829
0.0152997508744309
0.0152958832515644
0.0153026057166233
0.0150028530504686
0.01501408763574
0.0157148907323176
0.0163163941262857
0.0150255711157849
0.0150224036611884
0.0150134244532645
0.0150119825462344
0.0150100846838309
0.0150079417640032
0.0163544849694656
0.0163351703121834
0.0162364880151388
0.0161453572561624
0.0162990847122885
0.0169546229717901
0.0168028329754783
0.0169536039245875
0.0171149331523381
0.0171459313917496
0.0150130977697189
0.0150167292849645
0.0150178392192225
0.0150189595330712
0.0150602701309417
0.0150039994721714
0.0150038403479621
0.0150038743701813
0.0150034611244579
0.0150032314033695
0.0150055729350593
0.0150058357437626
0.0150069974630054
0.0150063922174642
0.0150060732262446
0.0150047983859825
0.0150052632750605
0.0150063983299839
0.0150058895405572
0.0150059164465197
0.0150119084100424
0.0150117393787454
0.0150129015414875
0.015010595431517
0.0150098931912126
0.0150184812967135
0.0150196439683499
0.015023515920321
0.015021358256869
0.0150217786455915
0.01502293389172
0.0150225550610468
0.0150244962651212
0.0150224448965445
0.0150211407100953
0.0150374958061494
0.0150396600955075
0.0150426779973208
0.0150395400373928
0.0150402532405521
0.0150420817859557
0.0150414096724469
0.0150440993241067
0.0150421695988868
0.0150398266610672
0.0150682252628833
0.0150715799821529
0.0150739304487643
0.0150701190044155
0.015071265374072
0.0150715213583224
0.0150704675010655
0.0150735251515327
0.0150720293490278
0.0150694866912144
0.0150637926716226
0.0150666081962182
0.0150679783089115
0.015065038306461
0.0150660656427624
0.0150972708365727
0.0150963105072975
0.0150991607061717
0.0150978520061896
0.0150950804972963
0.0150870904392859
0.0150900528992344
0.0150911911389286
0.0150882664293765
0.0150890137129615
0.0151209186867768
0.0151202088193101
0.0151230770100473
0.0151219996792563
0.0151190251101251
0.0151519448213771
0.0151550980112176
0.0151560722387723
0.0151532668150115
0.0151539566045496
0.0151439959232908
0.015143237606106
0.0151463915283577
0.0151447546356769
0.0151408953555644
0.0151745813725305
0.0151768447166573
0.0151779054390846
0.0151751516289613
0.0151758510335956
0.015168353760851
0.0151679729209968
0.0151709637503461
0.0151691686857766
0.015165973172434
0.0151679999349405
0.0151708021367538
0.0151744175387904
0.0151703594416406
0.0151699485673588
0.0152024523906122
0.0152032133359021
0.01520667072929
0.0152047607709594
0.015214341773114
0.0154297313025794
0.028788266428721
0.0292699285898214
0.0310819135377268
0.0328716655671637
0.0332023708100112
0.0152973856241885
0.0153100482398986
0.0153177260181039
0.0153229129112102
0.0162552640627791
0.0163545371186856
0.0164380745641649
0.0164461754263338
0.0351173664975806
0.0347841987058228
0.0330929214711725
0.0312320116709674
0.0304128078463205
0.0163731133128961
0.0158973827175594
0.0328509573063129
0.0310628807712249
0.0154589450709748
0.0156013665607996
0.0344827653373709
0.0346191651743022
0.0154413566284429
0.0153697121007128
0.0319984311952454
0.0298259585593573
0.0153224080933444
0.0152755128280483
0.0276908821661907
0.0277613647148966
0.01555497815053
0.015467600423898
0.0258451527767974
0.0275243877517424
0.0159551634966446
0.0158337142723993
0.0253761567200048
0.0249837360073048
0.0155757783453097
0.0155338365352766
0.0231566984498524
0.0210868521815572
0.0153301069616411
0.0152827988711842
0.0200759410831897
0.0196356125584041
0.0155201163872779
0.0154004395342957
0.0182028578704946
0.0180794818523218
0.015361864861006
0.0150728938191214
0.0170524579142399
0.0162020272729731
0.0154565653901462
0.0150078712975506
0.0150429093649363
0.0150296437456564
0.0150050953653885
0.0154332768398308
0.0161407365425024
0.0168319783656077
0.015044085437212
0.0150371499399044
0.0168233855353426
0.0161318984664063
0.0154329205477321
0.0150034261566738
0.0150260912651505
0.015031568498589
0.0150042025622027
0.0154561345957416
0.0161910457860832
0.0170391011311273
0.0150590895210845
0.0151439638968696
0.0170559651003017
0.0170956581729208
0.0150891661122654
0.0150724822314441
0.0166431116119479
0.0160629821409699
0.0153675807920628
0.0150131312165564
0.015036485788481
0.0150112972222677
0.0150021927961926
0.0150002347735634
0.0150030637363842
0.0150018050701858
0.0150001358831933
0.0150004598610337
0.0150017616671217
0.0150037483901491
0.0150010412982188
0.0150016222820294
0.0150051192025374
0.0150095135179504
0.0158965563403514
0.015362923679719
0.0150034586456582
0.0150043042731429
0.015328141916781
0.0158507014763005
0.0150160898454225
0.0150289723428824
0.0165124889177004
0.0173093375028322
0.0151298430843052
0.0150765961257458
0.0170593862455549
0.0179091397999068
0.0150801933590276
0.0150652034278074
0.0150301675424529
0.0150293417221735
0.0150273213901814
0.0150231290366241
0.0181599654561131
0.0181120415854294
0.0178654710615387
0.0176345035481831
0.0177413954462055
0.0185877543519251
0.0185162278689598
0.0188412671930454
0.0191848910759809
0.0192526363478934
0.0150300186402108
0.0150346322531992
0.0150384371710248
0.0150396772353096
0.0150718904982071
0.0150096941021081
0.0150111779917511
0.0150126538779412
0.015010516369257
0.0150102689946995
0.0150183158290824
0.0150185508362397
0.0150219694253918
0.0150192569239519
0.0150158350700805
0.0150256133784893
0.0150320046107428
0.015036373005382
0.0150312072165481
0.0150310075521254
0.0150373242348103
0.0150365121617333
0.0150400247718941
0.0150341250327681
0.0150321489634074
0.0150529738766263
0.0150565621704658
0.0150650257618167
0.0150598459719467
0.0150611784590504
0.0150671450622016
0.0150659488509621
0.0150705949664292
0.0150664961746165
0.0150628679911061
0.0150939331675847
0.0150975483996402
0.01510152268929
0.0150970166312675
0.0150981179436898
0.015102456396484
0.0151013877404875
0.0151050939177798
0.0151028300846971
0.0150995044684959
0.0151008523836694
0.0151033583939948
0.0151047910756641
0.0151018191809633
0.0151028084879955
0.0151352505792708
0.015134296755585
0.0151372044990247
0.0151358413296772
0.0151332779589192
0.0151273553219985
0.0151301710199366
0.0151314123339096
0.0151286303240028
0.0151295525933898
0.0151632691075491
0.0151623741462206
0.0151650693474162
0.0151639509757244
0.0151608980959231
0.0151968426129161
0.0151981008058654
0.0151986901647599
0.0151964144766771
0.0151972299090562
0.0151868326052452
0.0151861969859265
0.0151886072075778
0.0151881258203662
0.0151867749911947
0.0152218211195278
0.0152229747454769
0.0152228780055704
0.0152211399067733
0.0152216765272695
0.0152093579890234
0.0152087810788919
0.0152108168077277
0.0152105214400223
0.015209177153746
0.0151993031100841
0.0151985465265156
0.0151994230717215
0.0151970570266474
0.0151973355599376
0.0152475069312759
0.0152472621781878
0.0152485118554183
0.0152477752732585
0.0152615424121605
0.0153707494256891
0.0153140162020705
0.0153217147233528
0.0153245813363752
0.0153248603685777
0.015977162947787
0.0159724181404774
0.0159360000844532
0.0158855072023248
0.0158184333181547
0.0178177920689362
0.0322063914734388
0.0340337178602064
0.0359166080299466
0.0374927317132136
0.0378189934297937
0.0181993438365398
0.0181932108009808
0.0180065539754598
0.0177746179297906
0.0192170942619161
0.0196200114703504
0.0200006454009859
0.0200980951034432
0.0410739347176762
0.0400288120427222
0.0377411296535736
0.035552780199266
0.0340239363351468
0.0188590371146858
0.0182763086709033
0.0344303644816997
0.0336815087276882
0.0178060683695314
0.0162611185792169
0.0335662144447001
0.0347783742413399
0.0166795231195928
0.0176049727205522
0.0354157717328351
0.0372777311542956
0.0186627854303053
0.0181640786058011
0.0438092436175977
0.0455369905934485
0.0161938914688648
0.0158251120484546
0.0412248881841789
0.0377388866391673
0.0155685021690722
0.0154610585355825
0.0350663208889036
0.0322065095842831
0.0153844895941132
0.0157203642199301
0.0323426856275638
0.0299101920569977
0.0156385234232968
0.0162449416814915
0.0327016047380396
0.029942213408566
0.0161034764983293
0.0156952156493638
0.0293152362074863
0.0270119702398303
0.0156280316535066
0.0154312034749414
0.0234142334680532
0.0223114986582444
0.0153883192227919
0.015379724028608
0.022047080484628
0.0213279756799312
0.0156687929322929
0.0155100423588103
0.0210182564097266
0.0194215413424074
0.0154184600996186
0.0151757031245829
0.0187662409027075
0.0177141733431211
0.0151253840477489
0.015113555545317
0.0177074957557212
0.018062460072222
0.0153378557651807
0.0153742270745504
0.0181586177275523
0.0183624949294129
0.0151761312467167
0.0152132063246226
0.0181825337074609
0.0174358305240682
0.0151516343568962
0.0152884837216182
0.0177894389717132
0.0168789351128247
0.0151790454825333
0.0150371168356903
0.0150131248689704
0.0153836773403734
0.0160743602298814
0.0159800781552861
0.0150314948267789
0.0150125515465381
0.0153762206006095
0.0152921116061389
0.0150069978400573
0.0150214116447253
0.0157343251768267
0.0159715630355355
0.0150301351445151
0.015022573532057
0.0162510894257219
0.0164117875176958
0.0150184797290135
0.0150221102555351
0.0165402434669472
0.0172972817163142
0.0151671682833622
0.0151687286405933
0.0182450400406104
0.0182326765800507
0.0151355765835848
0.0151413379200349
0.0193094562037273
0.0188681796086295
0.015084257089234
0.0150900748176243
0.0199607833951383
0.0195613299815849
0.0195478361021326
0.0199921983412572
0.0204566943272858
0.0205464951582269
0.0150382541002319
0.0150456121269409
0.0150513917673658
0.0150522653452914
0.0150805992931682
0.0150917881294823
0.0150686188958096
0.0150683687051466
0.0150602745163449
0.0150470791365644
0.0219311958323245
0.0218180816143671
0.0212174591215526
0.0206392769860282
0.0206012862125793
0.0211685374434626
0.0150984219420644
0.015110923101763
0.0224941469966488
0.0217306678798944
0.0218368857028186
0.0225708037151039
0.0233303411091032
0.0234695194766162
0.0150600794109315
0.0150816140949264
0.0150923256074267
0.0150915043430528
0.01510768086752
0.0150411235950083
0.015051767738963
0.0150583262646898
0.01505086451401
0.0150503971417655
0.0150800512361202
0.0150808609865865
0.0150887368747665
0.0150817369878055
0.0150654885984852
0.0150837524895374
0.0150873955224214
0.0150956560858068
0.0150906849202352
0.0150919051886154
0.0151230824010227
0.015121931345082
0.0151267733545537
0.0151187188822417
0.0151148959341813
0.0151257625890917
0.0151294297225694
0.0151332885916875
0.0151288644768767
0.0151299163056124
0.0151347138348556
0.0151336859521259
0.0151373245515363
0.0151351523119565
0.0151317785594468
0.0151653779751866
0.0151689861405835
0.0151709967629836
0.0151674408259206
0.0151684458906298
0.0151692590661418
0.015168329037863
0.0151711579118302
0.0151699259929093
0.0151670995017873
0.0152035128787487
0.0152045954720353
0.015205264813965
0.0152028619363376
0.0152037125709122
0.0152411246454634
0.0152404196708893
0.0152421343213355
0.0152421231418585
0.0152413014003127
0.0152337814221635
0.0152348170737473
0.0152348055850839
0.0152331989830723
0.0152338741638743
0.0152539972293215
0.0152533985529543
0.0152546756261829
0.0152549197658846
0.0152550381638603
0.0152425357554455
0.0152424993347335
0.0152421787529169
0.0152407797356665
0.0152412620022937
0.015240357766974
0.0152398770622662
0.0152412756089362
0.015241591001271
0.0152414827961977
0.0152280117906337
0.0152283321479413
0.0152282955729275
0.0152266280692651
0.015227152498999
0.0152237409628061
0.0152232048605979
0.0152249366940379
0.0152249173435084
0.0152253496639044
0.0152498116605367
0.0152469674504541
0.0152468892325234
0.0152455744299671
0.0152459998302513
0.0152658936106033
0.0152655286427807
0.0152665277036439
0.0152667883250558
0.0152706490360152
0.0152792199141505
0.015265411077711
0.0152657605305085
0.0152647731441386
0.0152649731736009
0.0152625358441395
0.0152623239736262
0.0152633403385717
0.0152629051770385
0.0152776425043585
0.0154150804969988
0.015449072668404
0.0154609343398576
0.015468156332565
0.0154694922171428
0.0154949192525168
0.0154936940969968
0.015487472289491
0.0154768982469255
0.0154401587913208
0.0158214202995271
0.0159246746785246
0.0159714532216689
0.0160038253515741
0.0160083396230484
0.0160311409730234
0.0160266247890541
0.0159953307722277
0.0159498281119034
0.0158731592616624
0.0184806039599923
0.0189176321697681
0.0192534134001165
0.0195645722605062
0.0196389617517721
0.0203842178146944
0.0202842779018889
0.0199290339551151
0.0195433653582782
0.0188004133932663
0.0207351262968144
0.0366194173878276
0.0393006606845296
0.0422036191811928
0.0452153142021889
0.0468007704910683
0.0234714670416603
0.0231918838290668
0.022503205303265
0.0217858937380763
0.0218113814279463
0.0224605495433147
0.0230656857126698
0.0232800027591141
0.0498495560248679
0.0480370832459055
0.0447121268833335
0.0414482034901729
0.0384594552842501
0.0207821474240269
0.018615994700152
0.0406315696664781
0.0417714453212576
0.0186857920334182
0.0183999562295655
0.0483685528367728
0.0509806074541703
0.0165603019631411
0.0169463920221134
0.0469372208003027