/*--------------------------------*- C++ -*----------------------------------*\
| =========                 |                                                 |
| \\      /  F ield         | OpenFOAM: The Open Source CFD Toolbox           |
|  \\    /   O peration     | Version:  2312                                  |
|   \\  /    A nd           | Website:  www.openfoam.com                      |
|    \\/     M anipulation  |                                                 |
\*---------------------------------------------------------------------------*/
FoamFile
{
    version     2.0;
    format      ascii;
    arch        "LSB;label=32;scalar=64";
    class       volScalarField;
    location    "400";
    object      p;
}
// * * * * * * * * * * * * * * * * * * * * * * * * * * * * * * * * * * * * * //

dimensions      [0 2 -2 0 0 0 0];

internalField   nonuniform List<scalar> 
208838
(
83435.6212966663
83436.3424560763
83436.3290830393
83436.531725274
83436.7266787481
83436.7469674567
83436.7521289978
83436.7522346597
83436.3066948039
83436.3172925934
83436.3315907688
83436.3539083458
83436.4061567984
83435.4879440592
83435.4783678386
83435.4805038267
83435.4847395406
83435.4872356656
83434.894812557
83434.9354043221
83434.9378597535
83434.9421301315
83434.2613197399
83434.6676849727
83434.896016015
83434.9387690345
83441.5527587191
83441.8834486892
83442.1365078472
83442.7228690828
83445.1463809751
83437.0997021264
83436.8268361225
83436.6377838108
83436.4872711173
83436.2632711258
83439.0715049868
83439.1685839276
83439.2049405069
83439.2350611954
83438.8659509242
83448.8338735122
83447.618966093
83446.376113645
83445.4758991098
83444.9868938843
83450.139622462
83445.9003627542
83437.2895255387
83439.0365152917
83437.9204561456
83444.5513529426
83433.695206481
83436.0476313859
83435.7140201418
83435.83097595
83437.0888799047
83436.1148589222
83436.1230751045
83438.2087866866
83444.4678653324
83434.5247136715
83436.4230872687
83446.0601053276
83438.4119027125
83436.5101407714
83436.2698232576
83436.5823193182
83436.8676786139
83436.2880978883
83436.061144151
83436.6658502916
83435.6606198421
83435.5818165575
83434.3638038689
83434.4094528711
83434.8398581144
83434.7924401397
83434.9999662298
83435.0305366104
83435.0376032462
83435.0402124318
83435.0394469169
83435.2684017342
83435.2644840665
83435.2545605492
83435.2350474377
83435.1231994264
83434.1774391919
83434.2657086108
83434.2825369284
83434.291295735
83434.2951347461
83434.2707731613
83434.2673596518
83434.2593029974
83434.2446873681
83434.1827636352
83434.1757825494
83434.2381785383
83434.2582185453
83434.2685584662
83434.2725707661
83434.6720192577
83434.6722066992
83434.6678686262
83434.6570804466
83434.6315554877
83434.5154755611
83434.568701022
83434.5924875609
83434.6033226662
83434.6064364434
83435.179504524
83435.1721837932
83435.1546060155
83435.1226184096
83435.0533925059
83435.4597727177
83435.1450414411
83435.048162707
83435.0351789724
83435.0735874032
83435.0621489908
83435.3411670459
83435.3555196152
83435.3625398898
83435.4037305957
83435.3971167634
83435.402111876
83435.4139999907
83435.4120837739
83435.4499784658
83435.4568108195
83435.4326833021
83435.4395966442
83435.3864984671
83435.3147313662
83434.7874649335
83435.027147996
83436.8786109058
83435.4556893341
83435.2674039702
83433.9066658305
83432.6750102145
83434.8891146737
83436.0720158844
83439.1727819102
83437.5278947511
83435.6270142518
83433.7212280251
83433.0247752878
83436.829373396
83435.6669596431
83435.4935964318
83443.1761640154
83437.4308147125
83447.2546865645
83438.5765205246
83436.8137786957
83436.130535548
83436.5255864523
83434.812314606
83434.6500490614
83435.0258051781
83435.1126469492
83433.9766980922
83433.948205382
83433.0949589933
83433.1004807681
83433.5553234733
83433.5578275984
83433.9396547528
83433.9236646493
83433.1476300152
83433.1841524758
83433.4366079669
83433.507723154
83433.5242202773
83433.5328214621
83433.5362960158
83433.5180716983
83433.5145452252
83433.5060456663
83433.4892215921
83433.407766572
83432.6352605117
83432.7132418238
83432.7306510887
83432.7393208599
83432.7428387897
83432.7780498467
83432.7746131759
83432.766075215
83432.7492485852
83432.6793649747
83432.9005839982
83432.9827381041
83433.0016260677
83433.0116335085
83433.0156260917
83433.6584227223
83433.6548616123
83433.645353889
83433.6272338667
83433.5562138809
83433.9030459786
83433.9941322743
83434.0111880249
83434.0205664128
83434.0241378904
83434.4427111616
83434.438721277
83434.4289892871
83434.4097618998
83434.3313247835
83434.8308665067
83434.9505653499
83434.9732450199
83434.9854881131
83434.9905691184
83434.9547972836
83434.9499436219
83434.9379865275
83434.9120000765
83434.8132931892
83435.004994212
83435.1068689266
83435.1402839912
83435.153581676
83435.1578001371
83435.4099980828
83435.4047849156
83435.3927819663
83435.3660496202
83435.2100272697
83434.9690440947
83434.5037435005
83434.7839989005
83434.8386098645
83434.8950596091
83434.9071659332
83435.1962651292
83435.1919159965
83435.1708570416
83435.1493946762
83435.5558798181
83435.5814967711
83435.6082929289
83435.6224965999
83435.0593394846
83435.0484120999
83435.0044231662
83434.9748847205
83434.7783148155
83435.3679785406
83434.7597459615
83434.1682459881
83433.8718838327
83434.3662694184
83433.9469367191
83433.8890369768
83433.3503933684
83433.5243999418
83433.7972372104
83433.8550770543
83431.8524186435
83432.7098253849
83433.1869623697
83431.6945143364
83432.44877547
83432.5766199658
83424.2805086427
83410.0191153589
83446.2978464899
83433.7230270743
83443.2491818833
83446.9070633867
83465.2880935466
83452.6074117438
83433.5079381597
83447.3869044935
83439.6418584442
83437.0039510657
83437.6039417463
83437.8639514712
83435.4077735147
83435.1283765569
83433.4622874936
83433.5770980274
83433.5632856947
83433.4810363914
83432.5636965492
83432.6045963828
83431.7153004681
83431.6861835616
83432.2861843542
83432.2859343224
83432.7730160613
83432.7893965492
83432.0363163288
83432.0020021909
83432.3793497871
83432.4341935931
83431.5962828671
83431.531784204
83431.7731254745
83431.8399689863
83431.8579383377
83431.8669060539
83431.8704964339
83431.9293999332
83431.9260327362
83431.9174442523
83431.8997450382
83431.8333551982
83432.1135228195
83432.2009011021
83432.220423398
83432.2304629335
83432.2344905315
83432.8290002705
83432.8246733195
83432.8137647255
83432.7948031542
83432.6889302163
83433.4000501718
83433.5017965168
83433.5197178064
83433.5300950082
83433.5342195964
83434.4196775676
83434.4147199549
83434.4018371006
83434.3814916357
83434.2561555471
83434.5969007548
83434.7197114957
83434.740015837
83434.7524437708
83434.7572955013
83435.955734427
83435.9497055431
83435.9334745713
83435.9085737887
83435.7545422137
83435.7517056197
83435.901109676
83435.925395713
83435.9400623528
83435.9457334537
83435.6221796813
83435.6156821635
83435.6000011137
83435.5698137444
83435.4124485563
83436.502211643
83436.6860470437
83436.7187067073
83436.7389081153
83436.7470599657
83436.1517186885
83436.1421820215
83436.1227104175
83436.0922755591
83435.8720580317
83437.1048034474
83437.3825484102
83437.4210256622
83437.4497565151
83437.4632748854
83436.7269850802
83436.7047014634
83436.6708592922
83436.6325271043
83436.0302698783
83436.0650623894
83436.1078956096
83436.1266987413
83437.376658251
83437.3506245246
83437.2999709571
83437.2417179901
83437.9672419855
83438.0253943255
83438.0713503763
83438.0994740539
83439.2853910776
83439.2671259796
83439.2274771166
83439.176497001
83438.8218815443
83437.5949275917
83436.9465980765
83435.9952817211
83436.4533736914
83435.5633364618
83435.0576146782
83434.7111923901
83434.7995025291
83434.1247504507
83434.0129169012
83433.762513983
83433.8686698555
83433.1953930465
83433.0643848482
83432.6075671816
83432.9631861715
83433.1188054501
83432.8273085469
83435.3449133647
83434.2456500517
83433.3617021348
83435.0292285466
83423.5669299464
83428.5382023448
83423.1591793369
83409.3966231045
83447.4662916322
83463.0914063653
83446.1110137789
83439.1956812489
83439.346809072
83440.5680656259
83440.7659700295
83440.5197129759
83436.4264657035
83435.71029782
83432.2640652215
83434.6585927469
83434.0246156354
83434.2360544306
83435.2920899593
83435.066440169
83434.4397081152
83429.9941563216
83434.7077604593
83434.0527835868
83433.8292393256
83436.6611731152
83437.454408979
83434.0074436167
83433.8236002676
83432.2375798803
83432.2313848911
83432.3496491745
83432.3277334836
83431.1815280503
83431.2269797096
83430.3722824441
83430.3846426228
83430.9145777545
83430.9211903779
83431.5015082017
83431.5195453706
83430.6554209497
83430.6433720905
83431.1546790153
83431.19025041
83430.2742427428
83430.232333271
83430.5943728579
83430.666490648
83430.8903700341
83430.9527149179
83430.9704203646
83430.9786848664
83430.9818867826
83430.9045983823
83430.9010390996
83430.8920105345
83430.8738484038
83430.816940388
83429.773438185
83429.8287091957
83429.8476668561
83429.8570151333
83429.8606224671
83429.9383714347
83429.9353312463
83429.9276371869
83429.9110252085
83429.8550695797
83430.1845441108
83430.275205026
83430.2947302876
83430.3046311295
83430.3087713896
83431.3238044719
83431.3199010418
83431.3102601856
83431.2913325328
83431.202355191
83431.8055311064
83431.9115764079
83431.930621159
83431.9416585507
83431.9460318492
83432.9151603292
83432.9101319389
83432.8969847867
83432.8763694386
83432.7439151964
83433.6191149644
83433.7497594082
83433.7706893655
83433.783904667
83433.7889428999
83435.2664460086
83435.2603463728
83435.2435818633
83435.2185683382
83435.0540274133
83435.6143303693
83435.7713767642
83435.7957371135
83435.8119888721
83435.8179493965
83437.9709812547
83437.9636798794
83437.9428411962
83437.9128651028
83437.7253194686
83437.606931408
83437.7871043737
83437.8170906961
83437.8374286056
83437.8446195748
83437.4381369374
83437.4309800953
83437.4114705528
83437.3815782537
83437.1949249889
83439.4274615378
83439.6596943598
83439.6981969217
83439.7239863154
83439.7330215923
83438.51738872
83438.5070581359
83438.4800710961
83438.4385759697
83438.2132538936
83440.6384332986
83440.9297826908
83440.9841345692
83441.0196090335
83441.0327496945
83444.3271091324
83444.3097643606
83444.2624056737
83444.1901509745
83443.8097221617
83440.9297489812
83441.4037476845
83441.4720653216
83441.5261935527
83441.5516658227
83439.6489497384
83439.6099929784
83439.5459061723
83439.4637495432
83438.4828706158
83438.5643400544
83438.6276990279
83438.6633650777
83439.8517703184
83439.8021941848
83439.7189630251
83439.6049918229
83440.9941127796
83441.1058070158
83441.1939043665
83441.249505471
83444.1450715784
83444.1096629086
83444.0372498862
83443.9492362552
83443.3335227457
83440.333689287
83439.0998162299
83437.4891223953
83438.1816163974
83437.3780862563
83436.8481292598
83435.6771134266
83435.9101045869
83434.5145661111
83434.2794752346
83434.1824488142
83434.3415743207
83433.0019703581
83432.8715200177
83433.0637137923
83433.1320504703
83431.9301725919
83432.064018768
83432.5465677129
83432.4775531155
83432.0766001495
83432.696186323
83434.0632379372
83431.7483136382
83431.9126423289
83431.876471463
83417.8969401955
83427.3562272405
83425.8049371329
83403.9990444187
83434.1740389485
83429.7859765037
83437.2079374342
83441.9891984677
83463.7098012058
83455.0485885848
83436.6080744845
83452.5862018015
83437.4975012895
83432.9219474375
83432.0961132391
83432.5730640628
83429.5898458005
83429.4366439425
83430.879994474
83430.8840339541
83429.8883342841
83429.9253622968
83429.0358618909
83429.0209196066
83429.4519849081
83429.4213539763
83430.0118074387
83430.0351920231
83429.1909408195
83429.1879060029
83429.7732599874
83429.747553085
83428.7433199456
83428.7528950181
83429.2376424752
83429.2066619362
83429.5626220204
83429.6333125752
83428.5353817017
83428.4749599388
83428.71407022
83428.7731034425
83428.7934974026
83428.8032498349
83428.8072707816
83428.8691424878
83428.865795286
83428.8587902622
83428.8439926274
83428.7828889935
83429.0506629403
83429.1397569401
83429.1579889443
83429.1678685848
83429.1720965334
83429.8280246853
83429.8217651065
83429.8076310672
83429.783854949
83429.6558177121
83430.7889820481
83430.9092529925
83430.9299106508
83430.9417836294
83430.9465985752
83431.8791847804
83431.8738533015
83431.8599137171
83431.8384450005
83431.6896452391
83432.9623483091
83433.1409319217
83433.1654529932
83433.182968538
83433.1892348978
83434.3662781681
83434.360191263
83434.3435247224
83434.3191918966
83434.1533638716
83436.2701805867
83436.4715359367
83436.5010819008
83436.5221975288
83436.5295611909
83437.5124446749
83437.5049692356
83437.4835173012
83437.4531109402
83437.2555070102
83440.5881580989
83440.8065298823
83440.8478969827
83440.8764859668
83440.8860340869
83441.2119553029
83441.2026143002
83441.1748210183
83441.1335476297
83440.9263674164
83440.3959533662
83440.6096313229
83440.6501274145
83440.6768997559
83440.6860200389
83444.8625615714
83444.850940151
83444.8162224966
83444.7609087078
83444.5047127039
83442.6730456979
83442.9662205188
83443.0163188976
83443.0498794358
83443.0612372938
83447.6461466885
83447.6314865792
83447.5871994678
83447.5208589163
83447.1452326895
83453.1072976577
83453.5607638104
83453.6447109237
83453.7007391523
83453.7189890459
83448.4073528491
83448.384956799
83448.3237423337
83448.2314646686
83447.75874887
83452.3194105238
83452.8715163193
83452.9784742395
83453.0532533928
83453.0805220456
83446.767650566
83446.7196860978
83446.6248133915
83446.517600094
83445.7691873097
83441.4261126741
83439.6860093738
83440.3462883187
83440.5048247547
83440.6127849074
83440.6817413424
83442.6144741147
83442.5379295485
83442.4215978476
83442.2754248693
83442.7997643082
83442.9785225329
83443.1249177469
83443.2289137182
83440.7011021015
83440.6067374528
83440.4771515862
83440.2773166946
83439.4542334841
83441.7763687525
83438.152045109
83436.7092013714
83437.5291659056
83438.5972105472
83436.0644760848
83435.5604463518
83433.3781699239
83433.7879429438
83434.4250235091
83434.0906074167
83431.878095265
83432.2377518729
83432.7563055471
83432.4683007051
83430.5498057786
83430.7281086554
83431.5321949606
83431.6000569465
83430.2900262225
83429.9859135755
83430.4593901005
83430.678044688
83427.686501642
83428.970319549
83427.9472278741
83425.2609049879
83430.0103538511
83428.9915214435
83425.0381378421
83416.291991435
83421.3760269954
83426.9071997034
83425.8067862717
83422.2169518079
83432.794739523
83447.5903485837
83435.9392878009
83431.2005988293
83430.7531287695
83432.4877231378
83431.0573293347
83429.4394900679
83428.3660219247
83429.1790087445
83427.787985137
83426.981777071
83427.8301238441
83427.9708799836
83428.3233729981
83428.3734150107
83428.7394786805
83428.7218153435
83427.900123815
83427.8481099078
83428.1531942383
83428.2262021602
83427.3241507918
83427.2560933112
83427.7190619491
83427.7192938866
83428.0960562354
83428.0910372338
83426.7984041254
83426.8470143912
83427.3809317649
83427.4427620198
83427.8400496681
83427.9031469515
83427.9116501961
83427.9191526079
83427.9265541646
83427.8971820671
83427.8917027969
83427.8804465078
83427.8594428201
83427.7591523621
83427.4415627741
83427.488464807
83427.4179041671
83427.3753063888
83427.3586823866
83426.8396466852
83426.8320545487
83426.8084494695
83426.7861117142
83426.8339491902
83431.2996191429
83428.5070512313
83428.0474711829
83427.8053622985
83427.6814162209
83427.8027459387
83428.031103288
83428.544113895
83429.3927201437
83430.164227128
83430.0497086823
83426.8121420211
83426.5684925424
83430.8780845219
83423.3074356293
83426.1185724247
83425.8329129052
83426.1735223873
83426.2749329772
83426.340315868
83426.3692429438
83424.7570056139
83424.6163215986
83424.3369739708
83423.8037568405
83422.1178804821
83426.1522337544
83426.2718151055
83426.3125570111
83426.3239688103
83426.3546059016
83428.1206015174
83428.0827169591
83428.0682123732
83428.0699812598
83427.9070910742
83428.5919233586
83428.8141147164
83428.8442775928
83428.8650711578
83428.8768603125
83429.7266532537
83429.7176485216
83429.6976648153
83429.6733023769
83429.4670861861
83430.5718943289
83430.730187982
83430.7523654879
83430.7674438165
83430.774102441
83431.9495545234
83431.94184582
83431.9225125307
83431.8963048952
83431.7008477651
83433.2220865292
83433.4557551991
83433.488969807
83433.5144092854
83433.5238733723
83435.0808284383
83435.0733418689
83435.0513173277
83435.0218700773
83434.8110701061
83437.5002994016
83437.7597999236
83437.7977348135
83437.8260352572
83437.8353023092
83439.7385842899
83439.7294191421
83439.7020401032
83439.6644738145
83439.4229534659
83444.0943058135
83444.3628079068
83444.4152042575
83444.4516851641
83444.4634855947
83445.9276404963
83445.9155852122
83445.8785955043
83445.8203764733
83445.5829232611
83445.7011711256
83445.9337803367
83445.9918818321
83446.0277871839
83446.0396208089
83453.1247360742
83453.1094265085
83453.0631091958
83452.9808293646
83452.7168074733
83450.388381854
83450.701170623
83450.7765383789
83450.8213206585
83450.8362780799
83459.1932529303
83459.174970807
83459.1206782275
83459.0239122224
83458.6604874435
83469.9675150732
83470.3285384743
83470.4308260713
83470.487160951
83470.5054923909
83461.3641131096
83461.3429112642
83461.2747828102
83461.1779302029
83460.681270716
83469.5732903271
83469.9328061246
83470.0260249143
83470.0995548994
83470.1156178387
83457.7887386957
83457.7638626691
83457.6700833329
83457.5726406154
83456.9827480009
83447.7437665952
83448.4731739983
83448.607123719
83448.7288279377
83448.7870792812
83449.2980189987
83449.238850954
83449.104311468
83448.9435364711
83448.228468208
83440.6662028425
83438.1304976745
83439.0159566876
83439.2352100302
83439.3681374244
83439.4772240727
83442.279937715
83442.1565068751
83441.9893005346
83441.7759286946
83438.6719704959
83438.8802637702
83439.0348400826
83439.1710914076
83436.7002014736
83436.5714738351
83436.4556102954
83436.2860446191
83435.5198561043
83437.339604086
83431.8575406689
83433.7212387839
83434.617628686
83436.1795724955
83432.0788591651
83431.3466948673
83428.030269398
83428.8159768778
83432.1418641345
83431.5494185649
83428.2154149655
83428.8314311113
83431.0485632093
83430.5242987806
83427.4544339765
83427.7444956095
83429.6961788786
83429.5464565819
83427.1091010425
83427.0799082028
83428.3805884482
83428.2763218416
83423.8709821094
83425.8322045458
83429.0620229475
83431.036532748
83431.454221055
83427.4192356172
83425.5810089824
83425.1833396349
83422.668956744
83422.7647599071
83424.284091461
83422.2891675462
83422.8347719019
83423.7080487847
83425.6327284491
83424.4442553956
83426.3761192695
83440.0797178225
83432.6960258043
83428.1752675978
83426.7542304388
83430.2787501706
83436.2039320738
83424.9725142816
83423.7670553096
83425.1323781721
83424.1974799293
83422.9894985035
83423.275667482
83433.7985121409
83428.7640769563
83425.4028696342
83424.6155499249
83428.342881334
83433.3641397751
83422.559921764
83421.5403798875
83422.8875075848
83421.4801665386
83417.4904069641
83414.2336211426
83420.97224755
83421.6166857304
83425.1983399918
83442.2385122533
83445.392534988
83430.7963368303
83427.678469386
83427.7928874025
83428.2126130062
83426.6582024451
83426.3367596289
83426.2217661315
83426.3324621901
83426.6049218818
83426.6251294723
83425.2869929569
83425.2601095252
83425.08234595
83424.9302772366
83423.1361579302
83418.5699830515
83422.7583218068
83423.5339173772
83424.7046463609
83423.793552873
83418.4964114835
83424.2713879207
83425.9983964608
83424.7120261948
83430.1062761505
83427.8385615992
83427.571567774
83428.0111668316
83427.7562030092
83428.0971785421
83429.0382968196
83429.2869955589
83429.317013212
83429.3468328817
83429.3757241963
83428.4610830651
83428.4128632127
83428.3812748837
83428.3490566938
83428.2198230953
83428.4865316811
83428.8713793974
83428.971086701
83429.0265830095
83429.0694604129
83429.9068117677
83429.882562444
83429.8451049875
83429.7997243847
83429.4930487846
83430.3873234269
83430.5822502445
83430.6052722411
83430.6275018693
83430.6373660656
83431.9095226919
83431.8964865703
83431.867990697
83431.836319872
83431.5822741728
83433.1956257713
83433.5327841871
83433.5763467884
83433.6140444125
83433.6316241764
83435.7254543224
83435.7138825556
83435.6814371345
83435.63928307
83435.359365318
83438.2508485964
83438.5951944422
83438.6510559408
83438.6929986187
83438.707634759
83441.7836769629
83441.7720124746
83441.7354663872
83441.6856862922
83441.3678653695
83446.8453787415
83447.2375054448
83447.3032681371
83447.3504813357
83447.365259341
83451.3933887541
83451.3787141836
83451.332272593
83451.2596314077
83450.9590979904
83453.0016034321
83453.2620454482
83453.3448322945
83453.3920440666
83453.4073735864
83464.4901152178
83464.4732304559
83464.422572394
83464.3190350494
83464.0619965381
83462.9893275747
83463.2597012918
83463.3668020885
83463.4195996396
83463.4374476194
83478.1782302699
83478.1642850171
83478.1226133375
83478.0283204276
83477.7973836309
83498.9102349062
83498.5759890686
83498.5615509285
83498.5401378812
83498.5326893885
83485.0077232129
83485.0015631501
83484.9753410855
83484.9154858342
83484.8463347025
83502.9477165633
83502.9209999965
83502.9229035002
83502.9111985931
83502.9038776553
83479.3103094774
83479.3102027065
83479.255915668
83479.1822383083
83478.7545085186
83460.3685949004
83461.0935448987
83461.1916203741
83461.2852453879
83461.3044063033
83460.8244164721
83460.8207644651
83460.7775417319
83460.7429068405
83460.274383859
83445.6636454589
83446.4076066491
83446.4986094952
83446.5936711836
83446.6511611066
83436.051550826
83436.0191990992
83435.9815699124
83435.9777193029
83435.656420608
83431.0219827441
83426.8910009624
83429.2444361
83429.6508154156
83429.899966903
83430.0608809882
83432.4374024709
83432.3323213961
83432.2215038151
83432.1076002735
83421.1032226492
83421.1734500316
83421.2276708471
83421.3293412045
83423.0892655467
83423.1984358134
83423.4637510425
83423.9520952608
83427.1115296398
83420.9552875391
83421.1427943686
83431.8901772637
83425.3595968333
83425.1000641921
83424.1207052194
83417.6930448507
83422.5917352109
83420.4480060526
83418.4775645043
83432.4733685016
83409.1610339012
83408.8790579441
83401.769031548
83399.6386038554
83399.9145131108
83399.2533221695
83412.6898146929
83412.2454084984
83422.8049359733
83423.1630050519
83418.7544397742
83418.377091055
83424.1760842379
83424.9895560891
83420.4455044685
83419.9714708049
83424.476127763
83424.8801062835
83420.991012416
83420.6036896078
83423.3771138468
83423.942844928
83419.6298288135
83416.4865183207
83427.0258991482
83425.2462657332
83422.8151373432
83427.2320918528
83418.7688897689
83424.1776493819
83420.5440070503
83418.7444671076
83415.4116774022
83416.3248908586
83413.7622376726
83413.056045004
83420.4153751464
83420.6609376781
83419.5674976975
83419.2326649009
83423.0474587183
83423.3670013766
83422.6203340893
83422.7596448966
83420.7093444256
83421.3456447423
83420.2826720288
83418.2740227829
83409.376885596
83419.1630385389
83420.9029922322
83409.9892302089
83395.4370119383
83418.835697019
83420.8404987512
83415.2004896874
83399.3033666767
83414.0077079642
83427.5220678944
83432.1926237729
83442.5285123713
83433.2779948601
83437.0195652885
83430.0080843179
83431.8267601418
83442.3584433811
83424.0263538902
83424.3138457167
83422.9643167813
83415.7685381662
83416.7122199132
83423.1342253525
83424.9579870691
83430.6061498778
83424.8884438958
83425.2488700429
83425.8519394304
83425.4811124009
83428.5640047118
83427.3124530396
83426.5949493056
83426.2152386777
83427.5561262608
83427.4943173784
83427.8141070666
83427.4048707247
83427.6989506768
83428.517739003
83429.4922371087
83428.7189793516
83429.5079024771
83429.7700723711
83429.8380770016
83429.8680531109
83429.8991984623
83430.8548982788
83430.8289197888
83430.7880392144
83430.7441701775
83430.4741044287
83431.7823891039
83432.1362301481
83432.1925813113
83432.2421212695
83432.2753107892
83431.3158560668
83431.2752570492
83431.2334803574
83431.1632145338
83430.901725079
83429.8905382716
83430.5630577768
83431.3452489697
83430.6051449857
83431.9360278716
83432.3067100294
83432.4057858915
83432.4653828317
83432.5114000228
83433.6833766428
83433.6417793418
83433.5751958696
83433.4935072696
83432.9900451696
83435.1420925981
83435.5880218313
83435.647278161
83435.6980657502
83435.7223485706
83438.1295766987
83438.0949708119
83438.0256114404
83437.9455240441
83437.3490455477
83442.0392706025
83442.4738630347
83442.5490188993
83442.6038072312
83442.6229009926
83447.6344490414
83447.6105926433
83447.541285216
83447.4486090759
83446.9106027408
83454.6198031649
83455.053959227
83455.1327188869
83455.1887889296
83455.2057665379
83461.5505163372
83461.5341253368
83461.4818167779
83461.390899922
83461.0958970448
83475.9758036207
83476.1374506875
83476.2134437924
83476.2546802991
83476.2660438618
83480.7271951661
83480.7165346362
83480.6823914963
83480.6068443503
83480.4342329132
83504.5657350659
83503.9141571795
83503.8690272383
83503.8290073866
83503.8143444335
83536.8107884659
83536.8736243977
83537.0425511914
83537.3261933098
83538.5432195055
83527.3456403828
83526.6666890366
83526.5060778364
83526.4038396775
83526.3651487255
83544.7180245866
83544.7723697597
83544.9245369998
83545.2318118367
83546.5336525387
83528.6134912605
83528.2361098637
83528.1078850555
83528.0381414343
83528.0103248298
83507.0987337675
83507.1088769314
83507.1382407651
83507.215257235
83507.4915536325
83493.1297139606
83493.1834953398
83493.1528159742
83493.1465094171
83493.1364921436
83474.1763381412
83474.1711951498
83474.1578623003
83474.2386856805
83474.4737726224
83478.6866294045
83479.3513879425
83479.3890295466
83479.4207196232
83479.4128646054
83473.9424723589
83473.9395903916
83473.9172714886
83473.9186986016
83473.7621474172
83459.6075038145
83459.9357677782
83459.9000945917
83459.90012871
83459.8898019422
83446.3683042968
83446.364890143
83446.3525477238
83446.4541256201
83446.2577792352
83441.1055719996
83441.6925961239
83441.6987861284
83441.7104307689
83441.704390491
83430.4895087517
83430.4894842761
83430.4639964903
83430.4529061073
83430.3358057871
83422.7941730914
83423.0917946299
83423.1646269438
83423.2089136928
83423.225283645
83419.4877112011
83419.4492005937
83419.3993695905
83419.3170094445
83419.1228541065
83418.7529586092
83418.8283304964
83418.966244226
83419.0342473931
83419.1180812769
83411.5037180746
83411.4061859867
83411.3906116899
83411.2915357785
83412.0516878925
83410.2644258404
83409.6606100421
83411.1052089441
83411.6057320624
83411.8754121508
83412.0064733485
83411.9109238762
83411.8228754594
83411.6979085294
83411.3994271227
83400.768362169
83400.9347051812
83400.9537969683
83401.0205419247
83399.5275888399
83399.3095170978
83398.9179618883
83398.200813636
83395.4403067177
83400.2556102922
83400.2162547755
83390.7458769502
83392.1571675963
83391.3755784826
83383.2999170959
83383.0787701165
83381.9868626281
83381.1910874878
83374.3161289135
83374.0730858607
83392.9806473263
83393.2834355089
83408.2337964238
83408.0877636336
83403.5367560202
83402.8838184885
83413.7104186417
83413.6367580369
83409.2656965586
83409.2975940187
83416.0337216443
83415.2695465883
83408.8798019937
83411.7252903776
83417.2495382048
83416.4553302759
83411.6946567734
83414.7651987756
83417.2355635903
83408.6968089378
83400.3841241653
83410.0138250461
83405.7942428346
83403.0631980105
83400.4521406336
83401.7162362836
83398.790330275
83398.7900977702
83411.8080305521
83412.3681571636
83410.7975862372
83410.0357384805
83418.2564177297
83418.5264883682
83417.6745118287
83417.107569589
83418.8455853094
83418.5528270757
83419.6315693281
83415.6008482415
83416.6521275789
83421.3893679073
83422.5133487218
83421.7356976407
83427.3386667978
83425.34355311
83425.1316799791
83424.0988474529
83428.1209900785
83427.4224183901
83426.4630222956
83425.7416167538
83425.7245764216
83426.4474463354
83427.2210833552
83426.7614509354
83427.9444103145
83428.2679553474
83428.7620158925
83428.4407293192
83429.2432509283
83429.5440064642
83429.8945036015
83429.5379640063
83429.052501103
83429.6691766831
83431.6787933842
83430.6496592821
83432.4835906737
83433.0036502662
83433.1430510837
83433.2266083497
83433.2875378715
83434.9208317733
83434.8624884149
83434.7678525312
83434.6511681467
83433.9590754363
83434.4835889026
83435.4170439892
83435.5800594792
83435.7126359449
83435.7972704688
83433.4212979303
83433.3351345695
83433.2134003839
83433.0124488983
83432.2575620065
83429.6922324183
83431.3166888259
83429.6604653455
83427.3099050064
83430.8734664006
83434.0840112141
83435.3510410277
83435.5720136418
83435.7545563998
83435.8809498247
83432.4632284147
83432.3381290226
83432.1791257321
83431.9088657336
83429.147146018
83429.4547671839
83429.646733528
83429.8090442141
83434.0167616246
83433.8416479135
83433.6188857599
83433.3409264572
83431.8792811253
83427.8703049076
83422.7526745517
83425.7431460277
83417.576915791
83418.3894571419
83422.5484946561
83423.7902532475
83424.0683529385
83424.2507176738
83424.4545671972
83428.7582834464
83428.5448907513
83428.306949887
83428.0071045742
83425.9799247514
83440.4136848052
83441.827005528
83441.9716688791
83442.1281378078
83442.2316370649
83466.4480260105
83466.4486487865
83466.3935522269
83466.3957993469
83465.7834741741
83499.2605718222
83498.9595747581
83498.8483433291
83498.7904466841
83498.7612311697
83526.0987826462
83526.1553760706
83526.3042186325
83526.5582843622
83527.5348889362
83565.4366365386
83563.2203117707
83562.6834845162
83562.4108355471
83562.3140455403
83569.6457479643
83569.7501208571
83570.0498100298
83570.6427514524
83573.1649629302
83573.1194717298
83570.8431891022
83570.2990850228
83570.0241658039
83569.927438234
83561.2102600585
83561.2839443761
83561.4901972725
83561.9031518577
83563.5508125028
83587.0087575682
83584.1356711341
83583.6665039959
83583.4048692162
83583.3177164504
83563.3909554903
83563.4674232844
83563.6813086132
83564.0450414233
83566.3026069122
83538.0325597249
83537.1602340758
83537.0186467748
83536.9482480598
83536.9231673976
83514.2692151404
83514.292474942