/*--------------------------------*- C++ -*----------------------------------*\
| =========                 |                                                 |
| \\      /  F ield         | OpenFOAM: The Open Source CFD Toolbox           |
|  \\    /   O peration     | Version:  2312                                  |
|   \\  /    A nd           | Website:  www.openfoam.com                      |
|    \\/     M anipulation  |                                                 |
\*---------------------------------------------------------------------------*/
FoamFile
{
    version     2.0;
    format      ascii;
    arch        "LSB;label=32;scalar=64";
    class       volScalarField;
    location    "200";
    object      k;
}
// * * * * * * * * * * * * * * * * * * * * * * * * * * * * * * * * * * * * * //

dimensions      [0 2 -2 0 0 0 0];

internalField   nonuniform List<scalar> 
208838
(
0.0150064016171122
0.0150046157509902
0.0150016065086992
0.0150014169223599
0.0150020709730631
0.0150019856314345
0.015001838719564
0.0150018213421155
0.0150026559225581
0.0150028201637792
0.0150031753051612
0.0150035373018799
0.015003459207079
0.0150043992717515
0.0150041272540427
0.0150038996760267
0.0150036814807067
0.0150035539040131
0.0150272366500443
0.0150254917757694
0.0150281274832363
0.0150271847177035
0.0161404826508985
0.0162313391592574
0.0163297767479656
0.016350420984538
0.015603976799188
0.0155962798579926
0.0155550381581566
0.0155120832528041
0.0156797259746388
0.0150153018604355
0.0150135281838019
0.0150126765976937
0.0150110518318151
0.0150103818381555
0.0150065078673039
0.0150071343230972
0.0150076332238241
0.0150076493514137
0.0150075467661984
0.0152913916224819
0.0152993535652364
0.0153095416927866
0.0153183841326496
0.0153097159650346
0.0153026482962055
0.0157122671127086
0.0150170279047167
0.0150090043127021
0.0150025626179566
0.015328166890812
0.0158467499796538
0.0150144499340148
0.0150260713570193
0.0165063079287623
0.0165336070362661
0.0150240317527379
0.0150130085179891
0.0150030152364061
0.0153625872927351
0.0158947679935785
0.0158539655759656
0.0153233662583567
0.0150012849547516
0.0150092175890482
0.0150037749486507
0.015001613121102
0.0150023690226113
0.0150037649582959
0.0150037031796244
0.0150023923090168
0.0150002865077997
0.0150007940552452
0.0149995310064143
0.0149998669471008
0.0150001483883411
0.0150003563249043
0.014999954130118
0.0149995923484186
0.0149994401477664
0.0149993299055684
0.0149992657539266
0.0150002158854226
0.0150002132980422
0.0150002148452223
0.0150002111982068
0.0150001334392811
0.0149993196623439
0.0149993715056507
0.014999365339193
0.0149993599685586
0.0149993597899616
0.0149978973855579
0.0149978910476814
0.0149979378515305
0.0149979911143415
0.0149981922687636
0.0149967562579325
0.014996550086088
0.0149964984633912
0.0149964512871736
0.0149964903364717
0.0149970458278183
0.0149971736884148
0.0149973726758024
0.0149977268461371
0.0149984424652407
0.0149978913652878
0.0149969705106701
0.0149963583256077
0.0149961322482026
0.0149958937395593
0.0150037578635328
0.0150039559487742
0.0150039758546506
0.0150041099928241
0.0150053840837317
0.0150734044576239
0.0169447766254807
0.0167918814123048
0.0169420615637841
0.0171054944672769
0.0171395749061917
0.0150400227597634
0.0150360836796911
0.0150396860483701
0.0150374468299136
0.0150534647296363
0.0150567837897514
0.0150530004105667
0.0150576845929915
0.0181525785888274
0.0180986751131251
0.0178493983880148
0.0176184646126382
0.0177264824344636
0.0150857759053321
0.0150938214031689
0.0178937622090407
0.0170477142476552
0.015083968779236
0.0150301776419989
0.0163089939194568
0.0162929432095464
0.0150322387954782
0.0151175508750758
0.0172975946242371
0.017288871419906
0.0151706583902019
0.0150818005449297
0.0171169556048869
0.0164077595154964
0.0150229810184456
0.015022066754559
0.0162490833464606
0.0157551044745055
0.0152666638114654
0.0150021318609247
0.0150101854793584
0.0150066612986365
0.0150018335782587
0.0150006597579386
0.0150032094898185
0.0150014436912276
0.0150003951479032
0.0149998651919741
0.0149996164054238
0.0149989422554518
0.0149995953050009
0.0149994420381142
0.0149985533422519
0.014998425396329
0.0149993518598732
0.0149992313298885
0.0149982392348746
0.014998014378801
0.0149978341700321
0.0149977868926873
0.0149977460787108
0.0149977424439483
0.014999195561283
0.0149991971987126
0.0149992040297709
0.0149992154613939
0.0149991791806887
0.0149992211305017
0.0149992483899538
0.0149992378832173
0.0149992324221859
0.0149992308567009
0.0149979648296757
0.0149979694213515
0.0149980018492256
0.014998048816067
0.0149982016777406
0.0149977540724438
0.014997723740348
0.014997720528354
0.014997615377158
0.0149976239545469
0.0149967486924059
0.0149967445215371
0.0149968349709406
0.014996854620229
0.0149969665892023
0.0149972851238416
0.0149973810942183
0.0149974227825291
0.0149972326484776
0.014997229990962
0.014996390273254
0.0149962975450153
0.0149963611190352
0.0149962841838278
0.0149962674035793
0.0149977247479983
0.0149980682320578
0.0149983403396687
0.0149981346338384
0.0149982573638487
0.0149974082151687
0.0149976758663098
0.014997943284615
0.0149985616092592
0.0149993743695599
0.0150077402004491
0.015005548286829
0.0150056152870738
0.0150058614702911
0.0150057284225215
0.0150104006964653
0.0150105590834003
0.015010304434715
0.0150098240010511
0.0150123173282564
0.0151013903722351
0.018570616376945
0.0184929019639342
0.018818046071769
0.0191651147382544
0.0192418640923971
0.0150730538420686
0.0150692286543925
0.0150740778769528
0.0150700663038909
0.0150909803370366
0.0150944346243811
0.0150884282838024
0.0150905709174328
0.0205321404895657
0.0204278992217651
0.0199596113421205
0.019516352795129
0.0195460985248452
0.0151202315170868
0.0151180696335783
0.0199527039304024
0.0188532269032109
0.0151055310672541
0.0151262898439815
0.0192939578595965
0.0193265374495166
0.0151967118464003
0.0151807910478857
0.0182361216790998
0.0179539646289359
0.0151034888747062
0.015152891765513
0.0178730736642893
0.0170102440887235
0.0151206090926175
0.0152863836384528
0.0168979201152452
0.0161215549482279
0.0150379629231337
0.0150309609565937
0.0150119425573853
0.015376949349983
0.0159844915804821
0.0157353337425976
0.0152922447834553
0.0150072719262287
0.0150217955700812
0.0150125111365776
0.0150041970649685
0.0150019565138494
0.0150071295963581
0.0150027663803092
0.015000446388632
0.0149999526246458
0.0150007972288847
0.014999358382951
0.0149996790008595
0.0149996923265885
0.0149992621945717
0.0149988930716169
0.0149995973296677
0.0149994132806166
0.0149985163675823
0.0149987108798301
0.0149994677810227
0.0149992786947748
0.0149984187977085
0.0149988310786874
0.0149994282885706
0.0149993637539166
0.0149993717921958
0.0149993616108194
0.014999357524289
0.0149993561486475
0.0149984317337732
0.0149984363088427
0.0149984566189791
0.0149985112078549
0.0149986336138752
0.0149988295305387
0.0149987844332057
0.014998749236494
0.0149986928705858
0.0149986912111327
0.0150002409368003
0.0150002284763235
0.0150004099176035
0.0150003287050703
0.0150001522593569
0.0149986074256376
0.0149988116894107
0.01499891111642
0.014998686449227
0.0149987078400874
0.0150018025420224
0.0150017368132658
0.0150022123889328
0.0150018963716571
0.0150013409571711
0.0149994050979736
0.0149998508313792
0.0150000297290486
0.0149996005054447
0.0149996146882966
0.0150050289270818
0.0150049478832196
0.0150057951828756
0.0150053995464744
0.0150044957484203
0.0150019172626786
0.0150027173796463
0.0150032511452788
0.0150026748604067
0.0150028582170394
0.0150017732421785
0.0150020802731824
0.0150026254166068
0.0150030928816745
0.015003486744344
0.0150111583732547
0.0150114981385169
0.015011393732707
0.0150103054848969
0.0150100322304684
0.0150184546553903
0.0150186673398487
0.0150188541968175
0.0150177675193434
0.0150196862287703
0.0150307942684206
0.0150302739571516
0.0150321919876103
0.0150310873345471
0.0150309132594743
0.0151097370335205
0.0151099471555266
0.0151169748465366
0.0151140819051012
0.0206138090859478
0.0211913698744701
0.0217978245638549
0.0219323334600825
0.023477316736894
0.0233093866108129
0.022543181900496
0.0218107612047299
0.0151416198472934
0.0151440511334602
0.0151359130191889
0.0151316801263544
0.0150493475521932
0.0150494046603242
0.0150518794919664
0.0150488279874167
0.01504685141566
0.0151692343913454
0.0217562860444352
0.0225307907559222
0.0151522369218692
0.0151322102483687
0.0211782834594362
0.0219870934579528
0.0151395119726015
0.0152283019625904
0.0219968917050708
0.0205799087214179
0.0152131827657407
0.0151439428111448
0.0199866389170514
0.0189086345366543
0.0151228634401024
0.0151876505210338
0.0188430170539105
0.0189967621360763
0.0154509035675074
0.0153527205084696
0.017878033390518
0.0178177182544062
0.0152953917442615
0.0151692625716136
0.0168980490551442
0.0160817831321251
0.015385414194307
0.0150141098251738
0.0150383835495433
0.0150247316409495
0.0150091705928504
0.0150107749874334
0.0150218787159741
0.0150224848380125
0.0150256031968085
0.0150286483036999
0.0150254924039822
0.0150270309788424
0.0150234458617891
0.0150143586290252
0.0150205272586609
0.0150305843559287
0.0159717197446723
0.0150161848717741
0.0150090033580954
0.0150191003784875
0.0150204642570967
0.0150058568959325
0.0150022638194373
0.0150040870731336
0.0150012638861403
0.0150005645272523
0.0149999836030592
0.0150005540893151
0.0150002371651126
0.0149998176573812
0.0149997887855615
0.0149995355564673
0.0149993083517657
0.0149997566018239
0.0149996569111585
0.0149991594262098
0.0149995083893821
0.0149997889641386
0.0149996143475242
0.0149991355503019
0.0149995640043495
0.0149997803963246
0.0149996227067479
0.0149992896009779
0.014999111165246
0.0149990244247282
0.0149989730144944
0.014998965166222
0.0149989611522733
0.0149995252652993
0.0149995264644826
0.014999529174157
0.0149995385476805
0.0149995500572803
0.0149997286153434
0.0149996826839197
0.0149996790188474
0.0149996749813219
0.0149996754060037
0.0149994941793916
0.0149994936210752
0.014999490061373
0.0149995293591492
0.0149995824180717
0.0150001829785305
0.0150001962628311
0.0150001812499993
0.0150001561136277
0.0150001586438742
0.0149994299960358
0.0149994331727303
0.014999477187367
0.0149995119535159
0.0149995229170597
0.0150010525535639
0.0150012412960766
0.0150013357611783
0.0150011720419462
0.0150011814195921
0.0150049422924492
0.0150048913254899
0.015005317679001
0.0150049259279182
0.015004445808977
0.0150034220175742
0.015003910588287
0.0150042385809755
0.0150037951508325
0.0150038496699887
0.0150106486766254
0.0150105019628602
0.0150114037245735
0.0150107240348852
0.0150098606855282
0.0150071668967333
0.0150081570515173
0.0150087784433626
0.01500786897943
0.0150080310591188
0.0150190100043789
0.0150186641208527
0.0150202317928671
0.0150192875141232
0.0150177125809631
0.0150140478530895
0.015015536679264
0.015016197109263
0.0150147436723602
0.0150149721566902
0.0150115897878157
0.015011276502352
0.01501248414436
0.0150116092211137
0.015010115800098
0.015024065070345
0.0150265163283176
0.0150278287730833
0.0150257094015041
0.0150262599608115
0.0150235700719914
0.0150236971397175
0.0150255762975303
0.0150250169829214
0.0150236209916698
0.0150425889275761
0.0150453645107406
0.0150470480872566
0.0150440931869769
0.015044222037541
0.0150745637065208
0.0150740562442026
0.0150776796935767
0.0150749827918081
0.0150699655213606
0.0150694559759432
0.015075466212841
0.0150801550566739
0.0150757660229633
0.015075814276218
0.0151576447759258
0.0151690484677189
0.0151784124953808
0.0151759042798638
0.0231071495937796
0.0240176758512334
0.0249680331633827
0.0251716050869478
0.0269415234457399
0.0267028822636373
0.0255547552813048
0.0244512730230241
0.0152115515045999
0.015213714127902
0.0152046827666997
0.0151882812747706
0.015106661249544
0.015106692045873
0.0151109750584447
0.0151064273173835
0.0151006801195477
0.0152378792879646
0.0243161606014074
0.025613838820835
0.0152214090071735
0.0151814426156698
0.0240115777173679
0.0254039568246138
0.0151869370079466
0.0152652335813585
0.0253589511024142
0.0235826222311634
0.0152451491816904
0.0151830291037483
0.0225607781156918
0.0212014484051486
0.0151618673363685
0.0152833709028937
0.0211835356523297
0.0199414840696188
0.0152349291822195
0.0155582715803874
0.0202889182505168
0.0201162571856428
0.0154339139721498
0.0153699763074139
0.0188698508888429
0.0182153753215214
0.01522730904392
0.0151566279984232
0.0174564216125692
0.0166561799511568
0.0150781708308482
0.0150435374295376
0.0150157845617107
0.015373497135566
0.0160751602639065
0.0160506651907921
0.0153594026448053
0.015012957363332
0.0150455571776333
0.0150099558166301
0.0150017477231515
0.0150003074600256
0.0150025487494159
0.0149988477338848
0.0150006074286439
0.0149998310825478
0.0149998322268227
0.0149980744483656
0.0150001981067408
0.0149997174863305
0.0149997413489975
0.0149997638238516
0.0149998327618515
0.0149998164238686
0.0149996471007188
0.0149998074337937
0.0149998774772031
0.0150000323505091
0.0150002101182519
0.0150001750400256
0.0150000389211049
0.0149998463351443
0.0149998086896733
0.0150001395303079
0.0150000160308527
0.0149997509517778
0.0149996890138784
0.0149996794037385
0.014999683289257
0.014999682213052
0.0149997026421233
0.014999722018699
0.0149997276779577
0.0149997336794371
0.0149996984420259
0.0150005310588697
0.0150006224887694
0.0150006481713432
0.0150006068257682
0.0150005769571396
0.0150024543770981
0.0150024878970377
0.0150026527026393
0.0150023106730338
0.0150020437916696
0.0150017690748041
0.0150019394338805
0.0150021127543683
0.0150019520750329
0.0150019714288956
0.0150055709391398
0.0150055034954329
0.015005992210128
0.0150053926807889
0.01500497624834
0.015010924118695
0.0150116811779843
0.0150129108024553
0.0150118427894316
0.015012016017459
0.0150117968265986
0.0150116465997286
0.0150125470181624
0.0150117040973507
0.0150108248757605
0.0150217778890286
0.0150232386517835
0.0150246300032999
0.0150229942209666
0.0150233354756335
0.0150222976818035
0.0150219683445002
0.0150235793231802
0.0150225109911159
0.0150211245078371
0.0150396775423448
0.0150416762582814
0.01504308436294
0.0150406397493215
0.0150412779005357
0.0150371170496195
0.0150364726024541
0.0150387786944549
0.0150375611616432
0.0150353338615108
0.015030131649861
0.0150323294788935
0.0150332677090991
0.0150310704332855
0.0150315448159087
0.0150576640548725
0.0150568574844713
0.0150598490955037
0.0150586585615952
0.0150556601020227
0.0150460168412582
0.0150497579384148
0.0150516323692972
0.0150482930351626
0.0150492041544952
0.0150799951178381
0.0150791696934116
0.0150823985043566
0.015080601768251
0.0150769177639573
0.0151084151854212
0.0151121001663405
0.0151138292309583
0.0151106587434741
0.0151114348219481
0.0151056585992516
0.015105202543086
0.015108743061963
0.0151061019977818
0.0151010692952281
0.0151324891691545
0.0151376306348209
0.0151402070191076
0.0151367275984308
0.0151371498489955
0.0151380678273541
0.0151382430557565
0.0151425020647509
0.0151381034726278
0.0151328093794091
0.0152839125283589
0.0257478912831704
0.0259448810115517
0.0272708509877608
0.0286428918335789
0.0289163608415249
0.0152259778659627
0.0152411377554466
0.0152498108794419
0.015247970192831
0.0152821698816852
0.0152836671486671
0.0152754000082847
0.0152611200453834
0.0308498615387959
0.0305457074749086
0.028960153117337
0.0274127539915514
0.0271770799474721
0.0153377930462257
0.0153587947396464
0.0291655206386661
0.0273493146571889
0.0152774234897723
0.0153168492378419
0.0295874720109639
0.029556540228408
0.0153229077371408
0.015290169040878
0.0273450589454525
0.0257847377225822
0.0152380192954314
0.0152080543775591
0.0240810699277005
0.024124455507336
0.015392595404189
0.0153339100937234
0.0225755158367091
0.0234665720871148
0.0157399163225412
0.0156536970769813
0.0217737954723829
0.0215297120624799
0.0154972229791143
0.0153085899034948
0.020101289240322
0.0191355142901233
0.0152555439330131
0.0152116883752486
0.0184253271222374
0.0171165804847153
0.015100793517846
0.0151570759660992
0.0170852483735516
0.0161592770251559
0.0153957967444067
0.0150107781426854
0.0150453615465282
0.0150244514869952
0.0150055670654986
0.0150048334040784
0.0150160708387339
0.0150081469433941
0.0150013715576295
0.0150006893541842
0.0150070484566328
0.0150005850992929
0.014999234153176
0.0149993592424179
0.0149987433446855
0.0149989701704917
0.0149996365312201
0.0149994478561494
0.0149987596986252
0.0150001318780731
0.0149997992486042
0.0149997736000716
0.0149998933097932
0.015000369023038
0.0150001122433482
0.0150002266154382
0.0150006173489952
0.0150028107247176
0.0150010891453372
0.0150001862659564
0.0150015680953171
0.0150009074441469
0.0150009133515238
0.0150006653552304
0.0150006624072001
0.0150006366494941
0.0149996803646679
0.0149996940668497
0.014999709444582
0.0149998136884157
0.0149996242657205
0.0150016790714471
0.0150008719500145
0.0150017767181613
0.0150011889143266
0.0150012903770389
0.0150023748394705
0.0150025943948806
0.0150041275276865
0.0150055565675951
0.0150070854258264
0.0156782597985471
0.0155122122880994
0.0155555901285522
0.015596841837783
0.0156038666325139
0.0153091172454227
0.0153186685012289
0.0153100728041393
0.0152997506640242
0.0152958831859763
0.0153026056469348
0.0150028513781949
0.0150140855148958
0.0157148902824267
0.0163163925200805
0.0150255693190317
0.015022413205951
0.0150134269825321
0.0150119809891237
0.0150100833840199
0.015007941537874
0.0163544839611506
0.0163351688876521
0.016236487113734
0.0161453576616831
0.0162990836598291
0.0169546157341526
0.0168028310635727
0.016953598316212
0.0171149265680209
0.0171459259480981
0.0150130900346614
0.0150167196918201
0.0150178308560382
0.0150189543435782
0.0150602565715705
0.0150039850111371
0.0150038249441542
0.0150038584157326
0.0150034483229733
0.0150032198785403
0.0150055355378879
0.0150057976062478
0.0150069537201679
0.0150063502008211
0.0150060367063294
0.0150047623312136
0.0150052264488494
0.0150063592698451
0.0150058546463903
0.0150058811898111
0.0150118398449627
0.0150116721860934
0.0150128262377056
0.0150105244150919
0.0150098257673144
0.015018368348186
0.0150195226584203
0.0150233880665293
0.0150212444528623
0.0150216616997045
0.0150228112907033
0.0150224357206964
0.0150243627712705
0.0150223166481039
0.0150210217292719
0.015037304726812
0.0150394556297663
0.0150424664958124
0.0150393505726265
0.0150400577210946
0.0150418763890638
0.0150412104056898
0.0150438802683297
0.0150419567269601
0.0150396308500485
0.0150679237957018
0.0150712560661134
0.0150736004497746
0.0150698141464151
0.0150709505071644
0.0150711925275784
0.0150701501059542
0.0150732897807836
0.0150716974815156
0.0150691711801183
0.0150634678091463
0.0150662647851248
0.0150676278770146
0.0150647084655753
0.0150657270038545
0.0150969227663396
0.0150959710309886
0.0150988008156542
0.015097498853088
0.0150947464420428
0.0150867668229505
0.015089707241277
0.0150908374712248
0.015087934645082
0.0150886736467226
0.015120566511296
0.0151198648083817
0.0151227113029317
0.0151216414881281
0.0151186895096308
0.0151515921628212
0.0151547220774114
0.0151556897776466
0.0151529056383163
0.0151535873065051
0.0151436323391795
0.0151428827410139
0.0151460093967555
0.0151443776504051
0.0151405532320135
0.0151742120808653
0.0151764443842288
0.0151775059576948
0.0151747730833313
0.0151754640653632
0.0151678974312472
0.0151675295543157
0.0151705851831825
0.015168724468952
0.0151655367328451
0.0151676678430554
0.0151704097746754
0.0151740093399557
0.0151699872182952
0.0151695717657755
0.0152020640670367
0.0152028289023367
0.0152062575281032
0.0152043595460139
0.0152139951437985
0.0154295124026568
0.0287873129640497
0.0292690738141258
0.0310820050335516
0.0328726889214979
0.0332039060609066
0.0152970544305843
0.0153097604273367
0.015317418661018
0.0153228441496546
0.0162554168045585
0.0163546342206667
0.0164383011717488
0.0164464351388379
0.0351186992119748
0.0347850242443246
0.0330927709457332
0.0312308975738308
0.0304114994370978
0.016372899182207
0.0158965239775134
0.0328503689800459
0.0310625185407023
0.015458131109518
0.0156001074933946
0.0344824292131603
0.0346196660717126
0.0154407138816906
0.0153692761292738
0.0319984652420802
0.0298251364668734
0.0153219021832291
0.0152751743679737
0.0276903353882975
0.027761234336559
0.0155545040407549
0.0154672989834309
0.0258450754300457
0.0275246094094011
0.0159548377234719
0.0158335038073589
0.0253762709843861
0.0249839667610157
0.0155756048768072
0.0155337420199239
0.0231567868883887
0.0210868223856191
0.0153299649516307
0.0152826792983708
0.0200759805630915
0.019635652113216
0.0155199439873476
0.0154003621309133
0.0182028751161661
0.018079507689359
0.0153617218952193
0.0150728015555508
0.0170524722174623
0.0162020276274897
0.0154565652890592
0.0150078642083963
0.0150428930085541
0.015029605261804
0.0150050894115348
0.0154332768038475
0.0161407320469234
0.0168319786626638
0.0150440188757417
0.0150370949705737
0.0168233881544991
0.0161318956101583
0.0154329204020847
0.0150034213088365
0.0150260641424006
0.0150315495587381
0.0150041967954089
0.0154561342238376
0.0161910466567514
0.0170391160629176
0.0150590272727549
0.0151439365937251
0.0170559694626492
0.017095667087074
0.0150891610295553
0.0150724826729046
0.0166431136768042
0.0160629823545343
0.015367580792792
0.0150131331700299
0.0150364865118228
0.0150112927908352
0.0150021935007869
0.0150002376252631
0.0150030688279881
0.0150018065485544
0.015000137288488
0.0150004595906745
0.0150017601671213
0.0150037482492391
0.0150010420616702
0.0150016227354895
0.0150051200062725
0.0150095107134029
0.0158965551419821
0.0153629237010356
0.015003459044331
0.0150043033772768
0.0153281419069912
0.0158507006453117
0.0150160882709224
0.0150289657431699
0.01651248679054
0.0173093327946061
0.0151298317492349
0.015076584621267
0.0170593806473558
0.0179091236008629
0.0150801469622001
0.0150651830028597
0.0150301510106851
0.0150293219548726
0.0150272985803199
0.0150231144590945
0.0181599273214306
0.0181120133698655
0.0178654527151381
0.0176344933440468
0.017741376494807
0.0185877094513805
0.0185162024303866
0.0188412262432044
0.0191848267179794
0.0192525494239322
0.0150299910345642
0.0150345913408922
0.0150383969091512
0.0150396400369965
0.0150718585795323
0.0150096260355985
0.0150110983309825
0.0150125707418841
0.0150104428868904
0.0150101948935638
0.0150181912198202
0.0150184286626136
0.0150218321758816
0.015019124501273
0.0150157220421213
0.0150254407991048
0.0150318011569605
0.015036163619877
0.0150310204652538
0.0150308137588467
0.0150371398001633
0.0150363335998666
0.0150398237104988
0.0150339332160537
0.0150319695747531
0.0150527057912405
0.0150562757000489
0.015064726647261
0.0150595806320351
0.0150609033257849
0.0150668487471497
0.0150656625567209
0.0150702761850454
0.0150661852529873
0.0150625771908292
0.015093634355319
0.0150972287833661
0.0151011955063686
0.0150967218904416
0.0150978135384917
0.0151021325683124
0.0151010736796646
0.0151047549643346
0.0151024967860776
0.0150991941662318
0.0151005275083739
0.0151030184240717
0.0151045447907286
0.0151014936189858
0.0151024702373682
0.0151348992436418
0.0151339590028756
0.0151369441928804
0.0151354899170148
0.0151329400951697
0.0151270084115157
0.0151298044941904
0.0151310395152592
0.0151282777197348
0.0151291914699763
0.0151628892923487
0.0151620027703686
0.0151646784012766
0.0151635654059931
0.0151605326347287
0.0151964479705927
0.0151976883133677
0.0151982760476852
0.0151960166399023
0.0151968243305567
0.0151864400025016
0.0151858118653251
0.0151882040947951
0.0151877253222387
0.0151863955197515
0.0152214032816828
0.0152225403092056
0.015222444987772
0.015220719404101
0.015221249673016
0.0152089350306292
0.0152083654746507
0.0152103908027283
0.0152100899052981
0.0152087687688772
0.0151988513152761
0.0151980964552696
0.0151990081749679
0.0151965942349047
0.0151968616856665
0.0152470322100878
0.0152467942861192
0.0152480657099861
0.015247316739037
0.0152610894475944
0.0153704270997132
0.015313687514108
0.0153213869602467
0.0153242886026488
0.0153245715210703
0.015977344289444
0.0159724658775669
0.0159359485208936
0.0158853970814835
0.0158182004143205
0.0178174020567166
0.0322045265597454
0.0340321005516166
0.0359159904668913
0.037493123302429
0.0378198828877369
0.0182003766547153
0.0181936017867796
0.0180066679454707
0.0177746057559484
0.0192169436244006
0.0196201427304643
0.0200011748881191
0.0200998237185645
0.0410735803798399
0.0400272866622289
0.0377386318221242
0.0355499722756079
0.0340216751157925
0.0188585050959186
0.018275351643631
0.0344288517014981
0.0336802067545991
0.0178051829240372
0.0162602665553668
0.0335654569298065
0.0347775300096904
0.0166785135255839
0.0176039322278678
0.0354144292482985
0.0372758342054526
0.0186616235630454
0.0181624149692957
0.0438086256616159
0.0455408418195326
0.0161916429362819
0.0158235796100621
0.0412265857779929
0.0377392955835505
0.0155673536310899
0.0154602470668711
0.0350649289385161
0.0322052748122214
0.015383755525778
0.0157192332670605
0.0323423721438046
0.0299099780807678
0.0156377786995274
0.0162441695175848
0.0327024432037997
0.0299426673833753
0.016103016696779
0.0156947516546337
0.0293160870738551
0.0270124722300178
0.015627741359758
0.0154308771527206
0.0234141872140801
0.0223114119657236
0.0153881622958712
0.015379390859017
0.0220474395587044
0.0213280866352428
0.01566844948202
0.0155095446234523
0.0210184094065024
0.019421601836491
0.0154181969264455
0.0151754054881296
0.0187662705353371
0.01771417667462
0.0151252378314476
0.0151134339293429
0.0177074981737729
0.0180624823175089
0.0153377572043224
0.01537418961246
0.0181586274643261
0.0183625067386257
0.0151761202755599
0.0152131897580909
0.0181825251864694
0.017435828227594
0.0151516340665616
0.0152884704707326
0.0177894376331663
0.0168789348097457
0.0151790469969074
0.0150371178644799
0.0150131256617067
0.0153836773247502
0.0160743605298243
0.0159800782316636
0.0150314954062531
0.0150125515513576
0.0153762206007242
0.0152921116340912
0.0150070005039044
0.0150214143240163
0.015734325338955
0.0159715630559647
0.0150301378324819
0.0150225701891676
0.0162510882737853
0.016411785751433
0.0150184776893236
0.0150221027315926
0.0165402414348962
0.0172972774488656
0.0151671592098339
0.0151687044729381
0.018245019945916
0.0182326543190362
0.0151355538841283
0.01514129649116
0.0193093968194541
0.0188681099090737
0.0150841924412623
0.0150899786792932
0.0199606341566907
0.0195612375427502
0.0195477726439883
0.0199921161498049
0.0204565806037875
0.0205463649246831
0.0150382370602554
0.0150455438950469
0.0150513171003511
0.0150521932168788
0.0150805477973637
0.0150917074838194
0.0150684956350138
0.0150682438688109
0.0150601635170339
0.0150470486483871
0.0219309899702287
0.0218179016327332
0.021217314718681
0.0206391547668604
0.0206011220082685
0.0211682877047037
0.0150982817763606
0.0151107262745864
0.0224937746513455
0.0217303873731729
0.0218366746625353
0.0225705662690807
0.0233300719624149
0.0234692393393688
0.0150600804970486
0.0150814486023052
0.0150921327994719
0.0150913130913318
0.0151075626320062
0.0150408788868388
0.0150514736680192
0.0150580248761261
0.0150505964072265
0.0150501174893927
0.015079713217542
0.0150804981501282
0.015088425354358
0.0150813349976168
0.0150651561372353
0.0150834776309715
0.0150871015436817
0.0150953494463546
0.0150904120281417
0.0150916228997165
0.0151227904720076
0.0151216485088427
0.0151264571165548
0.01511841450916
0.015114611996138
0.0151254527047673
0.0151290984046436
0.015132950354003
0.0151285587000879
0.0151296010264655
0.0151343777259074
0.0151333595175964
0.0151369733657089
0.0151348062503607
0.0151314560905934
0.0151650381111113
0.0151686221427226
0.0151706287063099
0.0151670969806618
0.0151680924365356
0.0151688890295585
0.015167973109721
0.0151708774562989
0.0151695589371032
0.0151667431468362
0.0152031291039518
0.0152042153349432
0.0152049488126382
0.0152024793706065
0.0152033166273303
0.0152406891145848
0.0152399954368703
0.0152417615899289
0.0152417181635629
0.0152408803224744
0.0152333447080194
0.0152343662969375
0.0152343568566968
0.0152327612510572
0.0152334305037669
0.0152535272520347
0.0152529337253132
0.0152542022052491
0.0152544432070008
0.0152545722177199
0.0152420889412562
0.0152420397788511
0.0152417219663492
0.0152403327879991
0.0152408095488295
0.0152399089316751
0.015239433746547
0.0152408224430922
0.0152411350715052
0.0152410399669409
0.0152275798103078
0.0152278804705305
0.0152278497100607
0.0152261905614236
0.0152267084328323
0.0152233029613641
0.0152227735948082
0.0152244968064681
0.0152244716075468
0.0152249240147284
0.0152493595336901
0.0152464990318073
0.0152464267781925
0.015245113549287
0.0152455330378284
0.0152653979049136
0.0152650376771365
0.0152660357784025
0.0152662921180045
0.0152701664807074
0.0152787428790518
0.0152649297149107
0.0152652849215941
0.0152642813618388
0.0152644756926499
0.0152620445781002
0.0152618384151556
0.0152628725504398
0.0152624308285792
0.0152771711113804
0.0154146947387121
0.0154487868275996
0.0154606761853235
0.0154679195049409
0.0154692863992936
0.0154947263386779
0.0154934700044409
0.0154872237511702
0.0154766218111801
0.0154397713410726
0.015821224659252
0.015924631209462
0.0159714793912891
0.0160039537350933
0.0160086040578652
0.0160313226131034
0.0160266776607366
0.0159952807595053
0.0159497106585255
0.0158729164444172
0.0184804211266753
0.0189181139027201
0.0192543284447234
0.0195659660793711
0.0196416640587328
0.0203874722204219
0.0202860031727665
0.0199302076646848
0.019544005043622
0.0188004978292546
0.0207345045628227
0.03661583955592
0.0392950980230342
0.0421983707394141
0.0452114640564846
0.0467983363937474
0.0234742315004593
0.0231930169025508
0.0225038162005114
0.0217860499166196
0.0218110393102152
0.0224606234730203
0.023066255160022
0.0232824298303894
0.0498502689291997
0.0480351029222779
0.0447075523238184
0.0414425873913086
0.0384561722348683
0.0207811741573585
0.0186144108160151
0.0406322916869959
0.0417735776343636
0.0186838413612236
0.0183978459112466
0.048368076573262
0.0509844883954086
0.0165603803945892
0.0169461518771582
0.0469328584298283
0.0420976889437636