/*--------------------------------*- C++ -*----------------------------------*\
| =========                 |                                                 |
| \\      /  F ield         | OpenFOAM: The Open Source CFD Toolbox           |
|  \\    /   O peration     | Version:  2312                                  |
|   \\  /    A nd           | Website:  www.openfoam.com                      |
|    \\/     M anipulation  |                                                 |
\*---------------------------------------------------------------------------*/
FoamFile
{
    version     2.0;
    format      ascii;
    arch        "LSB;label=32;scalar=64";
    class       volScalarField;
    location    "200";
    object      omega;
}
// * * * * * * * * * * * * * * * * * * * * * * * * * * * * * * * * * * * * * //

dimensions      [0 0 -1 0 0 0 0];

internalField   nonuniform List<scalar> 
208838
(
1.00074058834566
1.000592755159
1.00016682602091
1.0001384238813
1.00031418317878
1.00027775329959
1.0002350451937
1.00020815800043
1.0002511070931
1.00029501536867
1.00036095391628
1.00043234229695
1.00036803792764
1.00042321937503
1.00043580668365
1.00038819331761
1.00034392106513
1.00030994814617
1.01993861101194
1.01899285227527
1.01769815020195
1.01614840668158
23.5019133351634
25.3800110765367
27.2002443965477
27.4277210839929
27.1439923023035
27.4411294947997
26.1537028961627
24.7520146391946
23.0884363212162
1.01343526893862
1.00936811921438
1.01009667275392
1.01163540023196
1.01146970396418
1.00981075899423
1.00888511641294
1.00737178959512
1.00654568032827
1.00352367861985
25.2906169225977
26.4259605474218
27.2553281734536
27.9874948103369
27.1792815618393
26.0385829241711
25.4420552719575
1.03479452681066
1.03282229992731
1.03006027707119
28.5616082301754
27.7018244362542
1.03296699732037
1.09642718091047
27.2364272391104
27.7010223577579
1.03135836727214
1.01760382020017
1.00724285971682
32.331124965691
29.9000422293605
28.582665684642
30.3979561746576
1.00839272374364
1.01703845598234
1.00047963543214
1.00018555306668
1.00031431211772
1.000524964695
1.00049409821093
1.00033312020219
0.999992806278204
1.00001733743848
0.999920953202735
0.999969054308893
0.999979966556103
0.99995659122596
0.999935620563406
0.999921351056324
0.999915173865473
0.999910685881179
0.999908117564827
0.999989805234164
0.999989727368829
0.999990051066112
0.999990171533269
0.999980874514908
0.999948783512679
0.999952807608907
0.999952583668561
0.999952383176663
0.999952382748248
0.999850856598689
0.999850581889674
0.999852630558955
0.999855697476571
0.999868208359139
0.999769023143485
0.99975612883185
0.999753230430751
0.999751063202038
0.99975274133408
0.99977900372167
0.999784129795008
0.999791921870859
0.999805848826188
0.999834903771053
0.999765688161083
0.999728411812285
0.999704215759961
0.999695743915069
0.999685934302938
1.00031327718924
1.00033424120196
1.00035472183778
1.00039826315947
1.00083179561145
1.39037967965273
22.8583717549871
23.754006854494
25.7559960277106
27.7158343035829
28.0630548014806
1.04558714257241
1.02629675413272
1.0243340538168
1.02821796317869
1.0653321913109
1.06299319324604
1.06915089535541
1.09088358106036
28.9329564645573
28.5077127716972
26.415375577745
24.2927790885374
23.7301560937976
1.39724452825991
1.65561974596657
27.1764729061773
25.7971637900359
1.63571830491833
1.04815271987483
24.6007723126767
22.0993274954989
1.02437786854121
2.18292018093395
29.2400842432338
28.8801675357786
2.71595703548535
1.4871117005922
26.121177595477
26.1548394130985
1.02570939097839
1.0207855171904
25.1876346041636
26.5890938730216
27.6792827139793
1.00411262407079
1.0115812261902
1.00140754066967
1.00021802020245
1.00003162438133
1.00038676889401
1.00008021229465
1.00000425870062
0.999970936867575
0.999929028998827
0.999897766964508
0.999961046753396
0.999953102739197
0.999881816855177
0.999876690142224
0.999948178220097
0.999943663352125
0.999869575796065
0.999861024379548
0.999848735933931
0.99984576252717
0.999843934930587
0.999843791698411
0.999946319828793
0.999946377975022
0.99994663288559
0.999947058923621
0.999943598922313
0.999945179150863
0.999948296142885
0.999947906263916
0.999947703523406
0.999947646855362
0.999852087141045
0.999852278389658
0.999853770932733
0.999856745678996
0.999868025417158
0.99980534905361
0.999798161741564
0.999797024800836
0.999792542617434
0.999793006233716
0.999760500344406
0.99976022948594
0.999764117857207
0.999765871679561
0.999776051327128
0.999743192766324
0.999749705789465
0.999754286153954
0.999739848961386
0.999740299105321
0.999700283506814
0.999696174806966
0.99969959673165
0.999697314108793
0.999701362661585
0.999767064229696
0.999799020030753
0.999825510852392
0.999802356981325
0.999812929082473
0.999754222246411
0.999771367457171
0.999783558953676
0.999813173366954
0.999838695709379
1.00134849794659
1.00052112224126
1.00049280210649
1.00051349175308
1.00051271834164
1.00108105781553
1.00107965871842
1.00104705599584
1.00100569686015
1.00211986584704
1.40483333339267
24.2160906157782
24.8929190581956
27.1265183791024
29.3383862920022
29.81099673309
1.09806868623393
1.07766263019138
1.07115842327471
1.07397685518878
1.08422726285094
1.08080039939056
1.08754092551872
1.10661315390702
30.7666359017076
30.259834133515
27.915212709939
25.5573196059462
24.7992684928857
1.41230619799601
1.6755505508978
28.2356527295004
27.5873820542901
1.66749317013134
2.18466116819867
31.5413039323547
31.1195211852363
2.66428634214745
2.66019888198369
30.5222776635494
26.908142950115
1.52311767312445
1.88336438179033
27.0294731468886
25.8148533548482
1.74753867427178
3.55079835944205
27.2171256071343
26.1631083213737
1.03346000807783
1.0240900956125
1.01022571027722
33.0133163057807
29.8299606206352
28.2809867160322
29.843685293556
1.00447884125688
1.01533118209024
1.00332997955766
1.00077767893221
1.00021912125831
1.00122718442739
1.00027177634789
1.00001338763757
0.999975821083917
1.00002078510948
0.999919669674104
0.999966072032493
0.999967081662343
0.999912955758938
0.999895522120538
0.999961342092742
0.999952033733819
0.9998802767919
0.99988749444137
0.999954084091733
0.999945417712994
0.999876233803437
0.999891510392188
0.999950966578854
0.999950470040733
0.999952865818997
0.999952491777299
0.999952341631703
0.999952291230011
0.999869393235538
0.999869596620962
0.99987060883968
0.999873897083569
0.999884031885922
0.999846602295621
0.999841689059991
0.999839813210921
0.99983572478973
0.999835883407858
0.999918892475109
0.999916471313629
0.999936345020759
0.999924450085151
0.99990590911851
0.999818474301617
0.999833383604041
0.999843937284515
0.99982481818686
0.99982771888337
1.00010129503711
1.00008914814073
1.00015221469715
1.00010532779759
1.00003862245668
0.999883121719784
0.999935793070996
0.999961978509298
0.999910255067205
0.999914816918851
1.00056716992113
1.00054431241193
1.00069393801663
1.00061509872581
1.00046517144495
1.00019110368144
1.00030447454613
1.00038484229682
1.00028625071955
1.00031334061382
1.00020340895268
1.00023098369947
1.00029438737824
1.00030042308219
1.00025302952554
1.00135652325737
1.00159073520729
1.00168201615717
1.0014665862213
1.0014462803322
1.00231975009087
1.00232701089301
1.00240589138824
1.00220012059392
1.00337676611143
1.00555274115229
1.00465933587626
1.00518600435851
1.00476746472709
1.00478029814236
1.11573118297213
1.09809204598694
1.09126491524665
1.09522894406056
26.2568506743624
28.7465908772247
31.2319673528041
31.7647227426881
32.8297526587506
32.274024294268
29.6351418087567
27.0016928560638
1.10816238355089
1.10379302000054
1.11039288348039
1.12585670314975
1.00953401971541
1.00945253774816
1.01057659657989
1.00945024778463
1.00940930411796
1.43274461301666
26.1720140926861
29.9638114211505
1.69923227023532
1.68184516632827
29.0498048188823
33.3984516307748
2.21742901191564
2.7023140324493
33.0300134791036
31.9928828653648
2.68853969281022
1.60945521859454
28.3172376572868
27.5118789756585
1.56539540357297
2.06187466282745
27.9656742433938
32.0781141442816
4.7471794496314
4.10800616034932
30.2290575360071
28.4430917237718
2.81349828461896
2.07859433957625
26.2748246066018
26.3388977957588
27.1377208400104
1.02747015915344
1.0404453194707
1.01215959084843
1.00277573576929
1.00393457881967
1.01158559791934
1.01107611993691
1.01520288378518
1.01410317316068
1.01257834602684
1.01155592638603
1.00910378112637
1.00441968760296
1.00901140636401
1.02231437742348
25.7095758967022
1.00454450678018
1.0014863322974
1.00479339980228
1.00617601251461
1.00133487393669
1.00027578406277
1.00048713872098
1.00003591299146
1.00002478808005
0.999979153165729
0.99999477663242
0.999974225162897
0.999973634790469
0.999973011416488
0.999931900983418
0.999914411416644
0.999969811150104
0.999963702805183
0.999905491677201
0.999918454915587
0.99996860678226
0.99995951913651
0.999903245331394
0.999919149912372
0.999965645588576
0.999958183585502
0.999908523227916
0.999901691546819
0.999892891066925
0.999889700691511
0.999889175518007
0.999888979784587
0.999958543793545
0.999958588345207
0.999958685903223
0.999959025904403
0.999957360218302
0.999963951358154
0.999964298063697
0.999964186984979
0.999964032904545
0.99996405502257
0.999910077145233
0.999910093321305
0.999910164283839
0.999912779756016
0.999919790275947
0.99991616532671
0.999915239141761
0.999914574707197
0.999911962511833
0.999912219990753
0.999872909582088
0.999872953023391
0.999876659305509
0.999878653939943
0.99988149239927
0.999963324541435
0.99998298435566
0.999996881730568
0.999977430790776
0.999979453325039
1.00035583387704
1.00034488235656
1.00041385647449
1.0003470097896
1.00027876083773
1.00020210934702
1.00027169356979
1.00032736845268
1.00025898661345
1.00027043307182
1.00122008958677
1.00118134858089
1.00137242538947
1.00122279308301
1.00105732381032
1.00076638634061
1.00093402715994
1.00105873834565
1.00088544720518
1.00092482819427
1.00296900204876
1.00285806811524
1.00327128386946
1.00302098468702
1.00264972902875
1.00205522134007
1.00239446650497
1.00257005346155
1.00221287288036
1.00229043509459
1.00169578028139
1.00162277614598
1.00191224826524
1.0017235458459
1.00142168467292
1.00437933034355
1.00506088527421
1.00545195070369
1.00476406466489
1.00495035534151
1.00425286551717
1.00421605959067
1.00474753938446
1.0043997744126
1.00379231662287
1.00878397215373
1.01006203262891
1.01101338835062
1.00988031011774
1.01006090181676
1.02164732816659
1.02117504904382
1.02313805924654
1.02115260500972
1.01839216188219
1.01631745604166
1.01855549020246
1.02085471707213
1.01837309491484
1.01854976109971
1.13780647061481
1.12667172319143
1.12067395828769
1.1250561602808
27.7849497606787
30.5754044160305
33.3821957449309
33.9606171195803
35.1073295261031
34.5088749659753
31.5295990108735
28.5766057860666
1.14555067398176
1.14134040048672
1.14736104569937
1.15291879465522
1.03256747529708
1.03253810359755
1.03605706242958
1.03284790960916
1.02960730469115
1.46488640417283
27.7002918777899
32.0480579831158
1.77123216107746
1.73041773866158
30.9653713960378
35.8927267126154
2.30995812768147
2.71493599514987
35.4786094867182
34.183447528786
2.71046193717609
1.66403099583933
30.1808064032892
29.2193829539818
1.63240894367264
2.40726742740101
30.1146345137406
29.0261595898925
2.26074307371001
5.25869647826048
33.9213200240515
32.6339797817729
3.52903776624722
3.26570061969229
30.6068609085881
24.4566520186342
1.73556218261192
1.47562478388474
23.0271092266005
21.870787033963
1.11496060013098
1.03049970066334
1.02258283461858
21.1950646342156
21.376923465542
17.4954115743935
18.2459083332567
1.00762182339474
1.02079554394742
1.00138768171037
1.00017450444821
0.999992512716153
1.00014357752094
0.999914649058505
1.00003038794867
0.999972855588456
0.999924505665852
0.999863387678629
0.999992487262237
0.999970310165767
0.999939859271067
0.999931323336809
0.99997261717511
0.999971687117159
0.999927403010529
0.999929548249919
0.999971722844458
0.999977270749323
0.999946224642994
0.999943550826619
0.999975272944527
0.999966524994137
0.999928025165281
0.999941301612306
0.999973077562463
0.999964919253892
0.999966164217133
0.999965060765799
0.999965087213163
0.999964867074224
0.999920149767203
0.999921036572676
0.999921480918304
0.999922859991025
0.999924305085864
0.999942666175494
0.999945613229025
0.999948053789147
0.999943464390996
0.999941147285693
1.00006221017359
1.00006480491526
1.00008658795277
1.00004539356439
1.00002345504513
1.00000486686863
1.00002199989773
1.00004431064504
1.00002396980165
1.0000268595668
1.00037713474686
1.00036419180054
1.00044495102391
1.00034903737112
1.0002926659229
1.00104342887043
1.00117804444316
1.00143247939261
1.00120051907865
1.00124356413043
1.00131744943302
1.00127787177392
1.00147331338447
1.00128917757599
1.00112245713719
1.00313047160471
1.0035015368494
1.00389439547541
1.00342271307884
1.00353773504643
1.00347962493287
1.00336683953906
1.00382839615825
1.00352254457089
1.00316073948289
1.00804180725508
1.00873589958009
1.00924536529724
1.00832788295282
1.00861487366839
1.00769486517694
1.00742127151673
1.00822389892714
1.00781371207645
1.00710851374453
1.00584815593446
1.00652153944177
1.00684587340049
1.00612131288807
1.00632655783852
1.01523931945878
1.01479014971166
1.01607741131285
1.01555655707603
1.01434577630987
1.01085339296606
1.01226020274191
1.01301857748989
1.01157424404447
1.01199801686476
1.02526027870287
1.0246358931009
1.02670850971064
1.02565752335584
1.02368108270147
1.04242433946283
1.04506499874969
1.0464728585862
1.04365600141482
1.04453945459858
1.03820905125691
1.03755378852948
1.04020638315688
1.03726473200424
1.03321618541718
1.05376515190248
1.05975691629364
1.0640572318572
1.06055593422951
1.0614485916849
1.05214349931328
1.05258993273009
1.05738183104901
1.05296102413232
1.04955098807081
1.49100369047747
28.5278601283476
29.4569941322338
32.5910801554531
35.759534094164
36.3740069632227
1.17540986776931
1.1741654297238
1.16774118585547
1.17127548751855
1.20167453703729
1.19940473622791
1.20818306205041
1.2058632629083
37.6773541455167
37.0533864381457
33.7004893893034
30.3838529762914
29.3999865073979
1.54387792781851
1.91798147291496
34.4280426131789
33.2078388261101
1.82885837633704
2.53622186761737
38.9697110148655
38.5502194321304
2.72060129339432
2.71764589397963
36.9347318811189
32.4000692383402
1.74534475725618
1.70158089485593
31.2306868548172
32.326090226066
2.63219948279406
2.51955721981314
31.1996996327305
37.3928469225524
5.79711848797514
5.58993045976806
35.7062954600801
34.5439988420711
3.73508084251239
1.91448935726568
26.9704709784724
25.7662964399728
1.72370967894117
1.35218034477522
19.4173864175372
17.9814154105671
1.06599115738273
1.49777152464925
16.3245639555272
16.8732713708925
18.4564628089432
1.00439729942288
1.01785871148334
1.00545485819769
1.00097566039767
1.00076366886334
1.00282172380355
1.00087028923802
1.00011516585471
1.00003515914491
1.00069668250359
0.999985917808666
0.999943476912371
0.999954709282174
0.999883644109961
0.999910662277807
0.999966915326615
0.999959168033348
0.999903904758248
0.999956696644704
0.999970539107594
0.999969059452593
0.999953337662444
0.999960691798317
0.999981034141991
0.999987768163461
0.999979036610655
1.00024263432671
1.00007462056489
1.00001034714706
1.00011794897093
1.000093326769
1.00022486752325
1.00016788927168
1.00022549409899
1.00029904155928
1.00023297755017
1.00018220345691
1.00013761639778
1.00019819750593
1.00000144282814
1.00468999109171
1.01687301562891
1.01745000304373
1.03459465588746
1.08099513001549
1.06711300047601
1.03731912719719
1.02021675295144
1.01668727719336
1.01160130886328
22.9936870479491
24.7519348904927
26.1539404808788
27.4413583711604
27.1438198958964
27.1787363447438
27.987673030192
27.2557231155326
26.4262344330716
25.1255885883062
25.9996468476748
1.02045214932361
1.0231606999017
25.3958407098827
24.5971703759072
1.04125805126884
1.02134938385515
1.02159271662822
1.02588787267433
1.04165856889622
1.0710391471744
27.430929100438
27.2041389399592
25.3835279401876
23.5050383454034
22.0944676664565
22.8686711051746
23.7606893333193
25.7636157013294
27.7222605986019
28.0678890451568
1.11540244234477
1.06722988393852
1.03448850442624
1.03629513181436
1.40065387082339
1.00069190608273
1.00039451586376
1.00038794670984
1.00043091343864
1.00053766421696
1.00090289595573
1.00073429474179
1.00075934737786
1.00067104285898
1.00130283988386
1.00024576893801
1.0002962065823
1.00045711709232
1.00037549459718
1.00038348800382
1.00114034609036
1.00109828642444
1.00133724917827
1.00092363571872
1.00082625030633
1.00214837636204
1.00236400665795
1.00325942590001
1.00268647505716
1.00281260997931
1.00321877297908
1.00309764580968
1.00364448319426
1.0030952170112
1.00278867922094
1.00666425064332
1.00735088074989
1.00839809271556
1.00724226718978
1.00753911437534
1.00846019646859
1.00816805240302
1.00918586011893
1.00849356540381
1.00769550883314
1.01795317600508
1.01946256456699
1.02050639692945
1.01864442334061
1.01929855180383
1.02003034274868
1.01941856801574
1.02089939243765
1.02020748458295
1.01909540233556
1.01725101036859
1.0183834279376
1.01893234488953
1.01765291152844
1.01821805644995
1.03500746913854
1.0342946091294
1.03569813512181
1.03517848840504
1.03394558327644
1.02934387035245
1.03084582677369
1.03143971496073
1.02984306679241
1.03044628203548
1.0530932251174
1.05234176658134
1.05419780958618
1.05363110507903
1.05185220357471
1.08565624577275
1.0877449175486
1.08819080879843
1.08604713052043
1.08693338728732
1.07260465431653
1.07136326183866
1.07509294080598
1.07317672430307
1.06970612387418
1.10957620445552
1.11126758163543
1.11279447843398
1.10921049963036
1.11070105764458
1.09223855249235
1.09114529467316
1.09494673307231
1.09041393963615
1.08375835967196
1.08132986215664
1.08067970790538
1.08561223389265
1.0802873968767
1.07923624824915
1.1155849418387
1.11822429624117
1.12264747170258
1.11876299985467
1.14417453276627
1.66842382332621
30.4354937223512
31.7710336765144
35.3163714823714
38.8677827006531
39.4681052809112
1.24709693234468
1.25355534279346
1.24175317465532
1.25316685431466
3.19653207583239
3.4088741935049
3.61553591987283
3.63014907411613
43.6168373342737
43.0930672903218
39.3160588626183
35.4463888393126
33.1711706202639
3.55624922040188
2.81353157669886
37.4309854792788
35.6378267490438
2.02829142144618
2.91149860878986
42.4910173968783
42.0824750248504
2.76067719675573
2.73010216467
40.3064920955401
35.0824799814434
1.86276605036792
1.7976139036537
33.6899221915428
34.8846638881553
2.90208622586011
2.76534637679968
33.5488763783902
40.8639460635286
6.17225203046666
5.97122204458243
39.0727457721708
38.0592976279724
3.83056309155218
3.77943387360959
36.3315643558525
27.9963429659371
1.84243582548414
1.48857123859775
20.8972327385299
19.7942819969108
2.8207081295948
2.54449114785913
17.9452069351835
17.1856029009422
2.49504083881087
1.05842308485755
16.0187088468762
17.408747826885
19.3239746353129
1.00456518281467
1.0185804730565
1.01191010200492
1.00373179504836
17.5778052707539
16.0167773502756
14.4603633106878
1.01819167700405
1.01897083064757
14.4590380858952
15.9960827851587
17.5523627013724
1.00425073183976
1.01206992993173
1.02004606796676
1.00952414634517
19.2711846947235
17.3707884768635
16.0292865011627
1.06907174876686
1.56686031617539
16.3570497870984
18.0495293225971
1.06310121160618
1.126733846313
21.9609709966587
21.3116045644087
21.2766921615812
1.0207407812696
1.03016671405961
1.0025121351512
1.00027831577833
0.999993226312339
1.00046322525715
1.0002055954959
0.999983846339153
1.00001027907619
1.000121284435
1.00056426441296
1.00009985639436
1.00020699903272
1.00102104683805
1.03031379612655
29.909690844219
32.3189740273086
1.01832047618902
1.01148416844003
28.5468227575757
27.70588879036
1.01966053609042
1.12384818682068
27.2513227542778
29.278970697649
2.21826982311691
1.63934732110637
25.8172096677785
27.1841587040357
1.66590881598432
1.41074373508945
1.09098797318402
1.09107766098521
1.1292884564172
1.17650996286732
28.9379335529356
28.5153693734599
26.4242908635649
24.3008116237364
23.7371251865084
24.2099844984835
24.9008919344411
27.1359640955692
29.34683387965
29.816866066101
1.18533951670341
1.14073701077037
1.10135494256415
1.10381366230577
1.42082152848946
1.00206114104636
1.00126905397263
1.00154899786462
1.00134572836131
1.00156357916396
1.00286686793022
1.00259301357925
1.00316665750934
1.00251517078679
1.0031671271278
1.00503874069208
1.00506009857056
1.00639505680112
1.00510016210714
1.00544578400927
1.00636902097497
1.00606140919093
1.00726380504152
1.00549436914697
1.00499131385933
1.01088672364451
1.01218738279005
1.01551105345389
1.01321996966943
1.01386805316113
1.01687271405972
1.01622154601754
1.01845899587112
1.01661601852241
1.0150265377476
1.03004875598121
1.03232831801652
1.034637559317
1.03168587356411
1.03258003759808
1.03640556641391
1.03554371157487
1.03778390015914
1.03665349567282
1.03481632645349
1.03663722460353
1.03782638341976
1.03849245842283
1.03686895884305
1.03764108048462
1.06459277979471
1.06374666027191
1.06524798889318
1.06481378551791
1.06380546138175
1.05955536238398
1.06068620441765
1.06099423846444
1.05971482324658
1.06050367416967
1.09938260572682
1.09863734584519
1.09979386496672
1.09994509373868
1.09902782985225
1.16133297974401
1.15727648604499
1.15569467420322
1.1550541523337
1.15555188394308
1.13450497248763
1.13368043476899
1.13552183190562
1.13612925817849
1.13735495960771
1.21064484445406
1.20704412657959
1.20609219001713
1.20469634333208
1.20534079098493
1.16655242654965
1.16510125443241
1.16837996111665
1.16722178464412
1.16476783896376
1.1273570301872
1.13011939912718
1.13374520944436
1.13007496043014
1.13066155311828
1.22163919837775
1.22229792018813
1.22522833845034
1.22045756314941
1.23960791126785
1.44151809325341
1.31995520884899
1.33844263724634
1.34750496155551
1.3434191165547
2.7587975456621
2.75865075117201
2.6636594080028
2.54253210777706
2.3888067773845
6.76167646628154
39.546870874406
44.7537060371776
49.5017512706215
54.0323161011987
54.5138138798725
7.71611025786125
7.72194241414248
7.22344401785536
6.66328810072757
10.6204694827146
11.7514498896533
12.8632530037747
13.1130053819954
73.9295567707357
71.0121573989995
63.7890443748604
56.7989278877844
47.8501938995649
9.31835777508739
7.78279498028741
44.3337038807255
40.5903963781095
6.74192430763548
3.54498032927667
39.3595152610199
42.0975164053035
4.37693149909002
6.33840072634041
45.1143613564808
51.7323099455307
8.77374992590486
7.39258169256634
54.7243849052912
50.6120568029025
3.80381735030116
3.22513263469236
47.1293704652814
44.3526458027337
2.87296441639259
2.06958540186862
38.3026793049552
36.5387092427804
1.95164953492328
3.07512755091657
37.8498072462463
36.3138791271492
3.00185933041748
6.55524595916758
44.9572173926669
42.823401347955
6.3916537234125
3.99108305670404
41.8668080898954
39.8558872119548
3.89905911003712
1.96104099050348
30.0195858145455
29.0540567229133
1.99939309583612
1.61129875530103
22.2944601188351
21.065168467113
3.06885428836413
2.71440648309997
20.3379244098813
19.1305304917
2.59097687784961
1.41277205119171
15.320101164192
14.527218006985
1.34226823426711
1.32379296008663
14.5261331909507
17.221392143745
2.47127183435358
2.59096596810124
18.0428761822375
19.5307804264863
1.31074221286683
1.75255274440743
24.6873714758375
23.2240304415151
1.507312364595
2.96005343106212
28.7374160746115
26.404276031557
2.22875352478032
1.06297570139974
1.06187962358556
27.1443860806874
26.3493982163531
29.8201316029342
1.04408338201695
1.03588662942477
32.9615685829506
29.8058432619107
1.00444873486589
1.01539321601127
28.2537089417304
25.7281612260574
1.02166725392059
1.02422201491129
25.2215624711227
26.1877646200788
1.03402687262947
1.04239905172818
27.7270002395646
28.9363673289452
2.74603614103404
2.69230776942593
30.5755101329626
31.0502033811061
2.21090453886734
2.20868290519223
31.516889996761
27.5594162783645
1.68321365598022
1.6948421030136
28.1416554660741
24.7637084438011
25.5592618152503
27.9206019211557
30.2654589668135
30.770356895538
1.19481167315057
1.15134639151024
1.1110008295022
1.11355016013743
1.43002004916973
1.43774322337822
1.12292520720463
1.12053055394395
1.16098988661376
1.20305031062671
31.746694809327
31.2141869185317
28.7287775676044
26.2351879745547
25.3719989213538
28.8567791255093
1.70227077147849
1.70723009493067
29.6503549958757
26.0065754734578
26.9465012143501
29.5850504807809
32.2248414681727
32.7838251668283
1.21039882787818
1.17162851309415
1.13196310919138
1.13375784574037
1.44507566418557
1.00871976957966
1.01040263712604
1.01300358058131
1.01036545812913
1.01064490117013
1.02180624490342
1.02168884160576
1.02579735419662
1.02173778326074
1.01664392706137
1.02321668253739
1.02535838711284
1.02987866931971
1.02681526323052
1.02769799454228
1.04837138055865
1.0472383307541
1.05116794935859
1.04514183566225
1.0416664525601
1.05320016145664
1.05622576253151
1.05901378676862
1.05529804294489
1.05648417203001
1.06264616351673
1.06160053049676
1.06406703361369
1.06303984352029
1.06101200265715
1.10217897057404
1.10418906859525
1.10489146095736
1.10226621798032
1.10342503704302
1.10613684391448
1.10531256990994
1.10680146200567
1.10701920194046
1.1062796572084
1.1741585158095
1.1690653894325
1.16724936161503
1.16641460301105
1.1669612492579
1.25996783963742
1.25978866819744
1.26069899455978
1.26295929772291
1.27550001543113
1.25257731102906
1.24296873449822
1.24119292790661
1.24061778876765
1.24078348882857
1.30103874960263
1.30100306224311
1.30174755649509
1.30381361355449
1.32053406280923
1.2762149244328
1.26560044345362
1.2645083616452
1.2630563029474
1.26356522673819
1.25002092083791
1.24935238953157
1.25063000024565
1.25149108765254
1.25882766471348
1.21003135613569
1.21033195172624
1.21110013913643
1.20797162621627
1.20933572791
1.19182834454658
1.19017002511541
1.19310814015121
1.19199009863889
1.19246006152176
1.24241867450196
1.23869768449431
1.24045961498556
1.23732205760054
1.23824179758408
1.29138010926033
1.29070139432092
1.29393340109981
1.29236596320707
1.29844203393738
1.28203098067697
1.26151589197727
1.26496123209408
1.26242582030313
1.26154155791122
1.24824006282778
1.24880699681182
1.25116841117695
1.24766539402117
1.26778963201276
1.55598994924999
1.63918946940579
1.66867610004227
1.68807646293922
1.68675348977491
1.75609647777995
1.7585464588122
1.74361076264993
1.71609054348141
1.62207266435315
2.40027094962148
2.63278588326337
2.74452780486605
2.82576827731899
2.82275912743319
2.8515633012952
2.85920710129136
2.77673430382205
2.67469963124997
2.50685164672684
8.52039307263876
9.91693305398383
10.8430180044174
11.7430541107621
11.9249611511079
14.2782842028391
13.9418700298887
12.8416897757544
11.7086531687225
9.34607450095072
14.364055221885
57.4535231439208
71.4823747486717
82.600156778438
94.5600320232539
103.302889930036
24.3437132782113
23.0873649524703
20.6965307307587
18.3249910625485
18.3520170881428
20.5044031452594
22.6192121649583
23.6175871512416
122.940858026049
111.008083203898
96.177950564637
82.5069557666674
64.6064577989754
14.4440023693638
8.58411734355491
58.2890878038779
58.1997244520489
8.72081788683335
7.84809788727025
59.1314319198046
55.2887459085212
4.41109870893845
4.28875316171873
46.9728961886194
42.5620407860061
2.43764134887984
2.22684427802225
40.3621279770825
41.182192123003
3.1066035351124
3.07615596109967
39.5429078958303
49.754585772682
6.55611379437967
6.62455876239657
47.2606446804966
46.0703062393609
4.17410595136831
4.08663309070159
43.9740230974905
32.8136295051516
2.22023292602252
2.16691790256386
31.3730943416803
24.0519254933913
1.83910739031676
3.43178148029084
22.3968135594387
23.0393020014531
4.18920576396348
4.34330910528876
20.4282428994568
16.6423139377399
2.20374841641495
2.79708938680869
17.112030785005
15.3335334564084
1.44544488724351
2.75225374744243
19.2357028047467
21.2946246182646
4.14421199875261
2.23425115935643
22.3362365070994
27.0609873491741
1.87108786104607
1.71756989292313
25.9687540424024
32.8364369127794
3.53139030736784
3.3707610150993
30.923868022883
32.3276599785187
4.79171863989307
2.08727170184359
28.0610322642089
27.5415253981516
1.60108704121498
2.66564532425839
31.1176202878863
31.877169073083
2.66247219505622
2.21527885902568
32.2423082390772
33.1359539241768
2.22633217793329
2.23599436808671
34.1717502336673
35.3912002119776
2.24147915875724
1.71285740208898
30.535900402321
26.6578656131219
27.6479893707031
30.4330377001018
33.2275377641001
33.8082879564591
1.21948445298617
1.18686517395234
1.14868849354882
1.14893156003625
1.45415514260728
1.47029395135566
1.17144456159397
1.1725471342326
1.21105450506361
1.23725507319291
34.9018746150198
34.3087407942458
31.3517136475454
28.4092809445239
27.3629158976444
31.542667453718
1.74936511049054
1.85427131212072
32.6798974936724
28.1407277678848
1.4969092739304
1.20016279340948
1.20364754881012
1.24291676450607
1.26418988390551
35.9840454755592
35.3917178866577
32.2852041307566
29.1915227412783
30.4986873501614
33.7855784709063
37.0544179804194
37.6104456918968
1.30369262782474
1.29002838591621
1.25115121882657
1.24636529391458
1.64148025732424
29.148331571121
33.8924374303298
2.01337943826119
2.78530688961763
35.7571559014275
31.7815246360929
34.0495386351629
37.6333814967765
41.1116525346877
41.5819940172883
3.46679331748897
3.43647557523514
3.23497332113015
3.03505975105655
3.39991372406584
1.4233689821917
1.29239305196557
1.3121644765406
1.31834809029745
1.32054003558858
1.21985427920879
1.21957290849172
1.22341764291542
1.21663777628212
1.23709832065825
1.23855324447411
1.23791183159893
1.2387974968647
1.23519529481695
1.23665249821205
1.25729222142477
1.25664301669209
1.25842577310937
1.25998553248083
1.26834589304771
1.35552634823442
1.33800012618089
1.33543437943936
1.33341133608457
1.33394555465092
1.33582248638596
1.3357154356625
1.33718464020886
1.34039491039082
1.36195068671872
1.35946420336074
1.33821267473899
1.33522502306408
1.33398425034662
1.33412396115707
1.31290341700945
1.31289142289143
1.31376449343493
1.31617541997451
1.33430469810673
1.44517396569474