/*--------------------------------*- C++ -*----------------------------------*\
| =========                 |                                                 |
| \\      /  F ield         | OpenFOAM: The Open Source CFD Toolbox           |
|  \\    /   O peration     | Version:  2312                                  |
|   \\  /    A nd           | Website:  www.openfoam.com                      |
|    \\/     M anipulation  |                                                 |
\*---------------------------------------------------------------------------*/
FoamFile
{
    version     2.0;
    format      ascii;
    arch        "LSB;label=32;scalar=64";
    class       volScalarField;
    location    "1200";
    object      k;
}
// * * * * * * * * * * * * * * * * * * * * * * * * * * * * * * * * * * * * * //

dimensions      [0 2 -2 0 0 0 0];

internalField   nonuniform List<scalar> 
209453
(
0.0158044445442802
0.0168268350316057
0.0223828999392932
0.0212619543544539
0.0165572529893964
0.016465377135552
0.0208298421264555
0.0201787865597227
0.0197705569673231
0.0157906924844507
0.0160113765020634
0.0155310825191764
0.0153832810100845
0.0154601845987564
0.0155980605668911
0.0161720805008098
0.0211260772665309
0.0208375239877323
0.0158859972774357
0.015974763071203
0.0222448517377747
0.0223608250077696
0.0162940008665972
0.015682894204983
0.0155347752567786
0.0156196572800775
0.0157714826478405
0.016542319658288
0.0236468232883194
0.0235490335654662
0.0161768176405805
0.0167387696105726
0.0247208871031859
0.0249201181451489
0.0171695718030814
0.01731088610877
0.02532056131938
0.0238002447965948
0.0169737133015863
0.0171460779051687
0.0234345563983718
0.0226891033509226
0.0171516693808114
0.0169901151023184
0.0210298371314475
0.019651029547835
0.0165794283713319
0.0160329545805895
0.018625508169675
0.0171719226480645
0.0155530613566649
0.0152644632607365
0.016334725179654
0.0157512184149662
0.0153141787027631
0.0150262949446519
0.0150622844405392
0.0150494533199713
0.0150148239179469
0.015011131168663
0.0150081597913993
0.0150231981448187
0.015038390136137
0.0150745610755618
0.0150476993446405
0.0152259543599287
0.0163415762618652
0.0163916068522256
0.0152584556594854
0.0150607466245286
0.0150872175049825
0.0156036961886423
0.015701820848027
0.0152726564803422
0.0152904935612721
0.015025262607907
0.0150264926461042
0.0155448842905165
0.0171624336307653
0.0169934044725886
0.0154243644555325
0.0151092555199815
0.0151671348975629
0.0151829982980662
0.0151177820052782
0.0154491770805641
0.0156440970676077
0.0156660616432501
0.0154657758452377
0.0153237850696623
0.0154462232823
0.0152039298058034
0.015131354231844
0.0150871136795365
0.0151273913103364
0.0152114972767071
0.0151445754667693
0.0152010183273142
0.0152672959904254
0.0153158318151914
0.0152604918137608
0.0153291805925104
0.0153913880001175
0.0155298113339004
0.0154184671960251
0.0157799670003543
0.0160053477917569
0.0163348066191021
0.0161715207832346
0.0173918201810407
0.0262350390004941
0.0263025922992318
0.0176852346803266
0.017799682932756
0.0267303303442992
0.0258502359684724
0.0174965296113469
0.0177575964112448
0.0267361207620644
0.0276179137846529
0.017781752816932
0.0178448302927981
0.0273442378123403
0.0278060696035679
0.0177380301512855
0.0177952084488695
0.0280171055019947
0.030704308858675
0.019320427296603
0.0188942390132061
0.0297778835935388
0.0290358285432133
0.0183279271432065
0.018539052897145
0.0307734835562098
0.0299221179091844
0.0178318528187522
0.0174057998031951
0.0269012553190183
0.024679049949676
0.0172484065344199
0.016803533101617
0.0238085367288026
0.0221854455872278
0.0166954009431074
0.0165814828653402
0.0207669286450118
0.0195441999030831
0.0163203231672585
0.0162470444331475
0.0194022913183855
0.0184878926361519
0.0160178148534677
0.0155546081156619
0.0172471330911303
0.0164286416157388
0.0152819666516629
0.0150548192757475
0.015020094474041
0.0153218679085009
0.015828007337496
0.0158364260692954
0.0152869895355184
0.0150116230868532
0.0150342867872137
0.0150180223924318
0.0150078718056958
0.0150132606685942
0.0150342638302711
0.0150387238577601
0.0151489637094813
0.0150953594554187
0.0151871221689688
0.0164385902704935
0.0164407599073221
0.0151168473424727
0.0150164101803717
0.01500451886165
0.0152883783056087
0.0158302086755049
0.0159096328525914
0.015343715030305
0.0150013292194507
0.0150126088730017
0.0150085653241517
0.0150047139329944
0.0150025553680625
0.0150049820095058
0.0150085742533583
0.0150037879330107
0.0150053348995769
0.0150157540438709
0.0150105694396192
0.0150050080981995
0.0150033156178848
0.0150043850118065
0.0150016693725117
0.0150013622079266
0.0150032351044975
0.0150043726531708
0.0150087578342023
0.0150060770625918
0.015007446371297
0.015016814435838
0.0150630755736807
0.0150326827142981
0.0150197614964211
0.0150292707697099
0.0150756448295679
0.0150560387638731
0.0150820702441668
0.015099753136824
0.0151326040892657
0.0151177495990891
0.0151571258702959
0.015192314121896
0.0152353153169682
0.015199686765049
0.0152430378289902
0.0152811232173526
0.0153340185073172
0.0152908732143832
0.0153445964552827
0.0153871622240917
0.0156680560322196
0.0155509190917337
0.0156314122995242
0.0157298690506565
0.016381227562518
0.0162296758797674
0.016230598037806
0.0163735888402002
0.0176248309612139
0.0177190276503472
0.0180743096147639
0.0177920136492674
0.0177322980677271
0.0179604450964458
0.0192926926442284
0.0321909971475785
0.0312273922103266
0.0189168376445682
0.0183996171815228
0.030867167241107
0.032378551832037
0.018577872187516
0.0202423607879021
0.0344454764562794
0.0342209966009227
0.0196413783783904
0.0184323660204027
0.0310358535093269
0.02803249995854
0.0173033873964063
0.0169410259049477
0.0256625381188454
0.0253261144150007
0.0164358653341345
0.0163861171017096
0.0236285666042035
0.0221418389808065
0.0163738900124242
0.0163751053514732
0.0207218042523623
0.0211355315034039
0.0164332813012732
0.0163603787073272
0.0194958949884559
0.0192716101385137
0.0160933872840909
0.015761498437221
0.0184038322308865
0.0172328614747629
0.0154242000205815
0.0152511988768613
0.0172105469024647
0.0174151757412199
0.0153793490965259
0.015159649844134
0.0165732322325909
0.0166609570111723
0.0151422667248353
0.0150112241692774
0.0150038394420787
0.0153738831519147
0.0159613289264837
0.0159023017141659
0.0153415416738929
0.0150023037850414
0.0150088592322904
0.015005944088439
0.0150026224593284
0.0150025859260108
0.0150062152350994
0.0150063666307116
0.0150024504026908
0.0150024356872498
0.0150064882803368
0.0150067796107182
0.0150017045440465
0.0150009351672796
0.0150008431874175
0.0150046334793201
0.0150051231658231
0.0150150329948938
0.0150127334547218
0.0150306250919774
0.0150398051433429
0.015086776475243
0.0150687796479073
0.0150938592463126
0.0151068053685514
0.0151362088963635
0.0151271891298829
0.0151143089699385
0.0151248287029266
0.015158430375198
0.0151486108013308
0.0151545104436355
0.0151691725941623
0.0152067396315703
0.0151911252140413
0.0152284441733707
0.0152450837074428
0.0152819166570813
0.0152656252179037
0.0152854379901525
0.0153021650796285
0.015407852335491
0.0153663721417602
0.0153744071084436
0.0154171020194296
0.0156992661627516
0.0155875092211802
0.015626636649952
0.0157324438369561
0.0157843126881636
0.0156963107029858
0.0162982446438644
0.0164413359861412
0.0164308736524915
0.0162884903708533
0.0164803911759692
0.0165938733798495
0.0178439984901713
0.0180981065737568
0.0194808082316453
0.0355301526782667
0.0335304775969629
0.0191753511968103
0.0199658257559545
0.0207749056430918
0.0382711775387791
0.0355823090056419
0.034017179563988
0.0190934111324311
0.0197492506973406
0.0360557430543145
0.038643192522056
0.0429784280200904
0.0215328767931708
0.0204049312964912
0.0193001229702365
0.0188094555826696
0.0188425950115353
0.0193068637640359
0.0204944210879092
0.0214572539143226
0.0457087251447197
0.0410162790477885
0.0432168941768963
0.0205627400434693
0.0207387386017391
0.0397910922487699
0.0397096035971657
0.0207778157312189
0.020706632036467
0.0366045598072664
0.0204439712141657
0.0180787448684013
0.020461115439746
0.0402975891672233
0.0351264046392009
0.0201531659594692
0.0195665029962279
0.0326937904620285
0.0295516194125441
0.0175388374190735
0.0166019158053003
0.0272911819348008
0.0280694760786576
0.0165657564799789
0.0164833708352769
0.0260419638052423
0.0242801580926292
0.0164555605634544
0.0164490603996733
0.0227561946597783
0.0234885745788344
0.0165521492785043
0.0165793168435755
0.0213924233374253
0.0205309874757095
0.0164122168193499
0.016019102613891
0.0197791665438288
0.0189777953774216
0.0158645273543882
0.0158740466391949
0.019671087696828
0.0181593212854551
0.015465237557346
0.0156207971952341
0.0185623117159431
0.018679970559808
0.0154689788055015
0.0153448288958676
0.0175316098403467
0.0173243692046664
0.0151401221228239
0.0150692239777389
0.0165555925230259
0.0165525953805347
0.0150711939186544
0.0150132003242105
0.0158998313367071
0.0153411551233088
0.0150033602441284
0.0150038518941021
0.0150084370860773
0.0150071879513747
0.0150026240191063
0.0150023899167205
0.0150075688131159
0.0150079303219101
0.0150022010649824
0.0150016453068024
0.0150125898692252
0.0150063517396946
0.0150048941587989
0.0150002323657298
0.0150000474783241
0.0150057539785122
0.0150043054355714
0.0150224447892679
0.0150379815898651
0.0150785617102089
0.0150527827542747
0.0150159018194394
0.0150225768521614
0.0150768100365334
0.0150479017403165
0.0151019757633081
0.015140773534406
0.0151668257084928
0.0151326176001106
0.0151733561917752
0.0152058878036001
0.015143439833293
0.015131129215046
0.0151670268282945
0.0151789528955574
0.0151696051875171
0.0151612844789369
0.0151952812317526
0.0152037981987889
0.0151928702098653
0.0151828261920207
0.0152173674747046
0.0152278691406208
0.0152620521783268
0.0152513179545689
0.0152699116408142
0.0152816608257354
0.0153011647243381
0.0152842448536734
0.0153040116671727
0.0153223282056004
0.015323226224505
0.0153050706627094
0.0153889969299274
0.0154292713424465
0.0154399782055799
0.0153994215315175
0.0154226237520605
0.0154636772098895
0.0157588529178537
0.0156595455222249
0.0157794052347384
0.0158409572213056
0.0165279596197467
0.016387489209833
0.0166143028771765
0.0167017237308806
0.0172081607931841
0.0171252674476442
0.0186154689769925
0.0183486435490903
0.0171510020726262
0.0168499218889727
0.016337756679362
0.0158355101528019
0.0157252342949536
0.0157289105826571
0.0156751449530127
0.0156649919798079
0.0156307669257315
0.0157445617181373
0.0157300570824822
0.016296721810635
0.0168613944213716
0.0268481052338649
0.0238094683968792
0.0164495843180193
0.0158101696627837
0.0218200338565869
0.0201161421934201
0.0156094083846495
0.01532082647649
0.0193235410799115
0.0182406822348698
0.0152208717969729
0.0152247374701914
0.0182248086247754
0.0173169795703121
0.0151433470358305
0.015358747628089
0.0175243930254208
0.0166620265337101
0.0151468185540472
0.0150111817294046
0.015005527510515
0.0153728570540849
0.0159609645939036
0.0159108093616955
0.0150130712616791
0.0150018338088831
0.015342500246764
0.0152870848286999
0.0158055495425352
0.0150152776773538
0.0150023366075712
0.0150034112225634
0.015008567785529
0.015006942163914
0.0150030444271418
0.0150043778871692
0.0150095608371233
0.0150127996542805
0.0150588567259092
0.0150553032258042
0.0151641602943215
0.0165770368047255
0.016401134976809
0.0150995314772608
0.0151581703857388
0.0163851307632174
0.0158073939495155
0.015285276732278
0.0150065736497983
0.0150281538294828
0.0150147041133227
0.0150046508214871
0.0150097070931267
0.0150328968845827
0.0150441111117121
0.0150091213788365
0.0150270164560355
0.015312872204844
0.0157399408890235
0.0150625481051655
0.015280596560388
0.0163156923815431
0.0162936751438469
0.0162772442460212
0.0151432662558438
0.0152525665885281
0.0150607316989442
0.0150440763156724
0.015019080871756
0.0150270029436275
0.0152725217270688
0.0152904668669197
0.0155948252360814
0.0156530517208441
0.0155925510545018
0.015412469455706
0.0168737335721417
0.0169833476181127
0.0171594891576967
0.0155444566831854
0.0159815157119675
0.0185688609080606
0.0182579571644462
0.0179215644560957
0.0157001972780396
0.0158416451831983
0.0156362491444249
0.0154203672909389
0.0151317744597195
0.0152000293259313
0.0152267447888099
0.0151504928304583
0.015308231697741
0.0154450355200215
0.0156580998792052
0.0154366575098912
0.0156965753796943
0.0159197382099104
0.0189690462288807
0.0186178962532529
0.0195677135101355
0.0157364069633532
0.0159894988915653
0.0199251886512242
0.0205804317690046
0.0163908108227633
0.0164708257368484
0.020994096191001
0.020835822711957
0.0205974329507598
0.015801804821724
0.0161211895618074
0.0155670834287931
0.0154197269186977
0.0152215099560941
0.0152769221034856
0.0153264115900829
0.0152744938921244
0.0152148980536844
0.0152479485227369
0.0152903212391118
0.0152558640506966
0.0152024096223697
0.0152146772514837
0.0152509286126765
0.0152384795605964
0.0152298205324343
0.0152388519978146
0.0152735646441415
0.0152639339599074
0.0152828037598809
0.0152936619970623
0.0152815839351173
0.015269791788227
0.0152896298919831
0.0153034245842569
0.0153032304744442
0.0152895312172598
0.0153096954955757
0.01532640299779
0.0153447900486486
0.0153240961887627
0.0153250413639131
0.0153456202450475
0.0154504666895993
0.0154106353278937
0.015422603576024
0.0154579605387772
0.0154719239014157
0.0154382855955689
0.0154503103413211
0.0154846978058262
0.0154854468988867
0.0154512497200445
0.0156794478423813
0.0157633564764769
0.0157879786702408
0.0157036237801954
0.0158099107804327
0.0158661483750306
0.0158712861659907
0.0158320998278018
0.0159147656113219
0.015875254833778
0.0158489224005462
0.0157930926688663
0.0157893817248816
0.0158478109518497
0.0157672145692273
0.0156771240036844
0.0156666272664752
0.0157557059345299
0.0154712018788975
0.0154347388604577
0.0154345915102422
0.0154709428211039
0.015485362032692
0.0155214297398797
0.0155379119017187
0.0155469315614001
0.0155467982007032
0.0155612872577046
0.015561555557365
0.015563313933034
0.0155628439528387
0.0155713690116185
0.0155696724414351
0.0155866189340055
0.0156094839382581
0.01561242978222
0.015672332755749
0.0158121559275973
0.0159004088605531
0.0154444765361454
0.0154710953795486
0.0161888028007744
0.0237853451179428
0.0220996994584415
0.0159356810971257
0.0155753997137175
0.0205822248315156
0.0205527430211648
0.0157762526743646
0.0153603083441347
0.019293109939062
0.0200037842924018
0.0156789353545647
0.0154757710874529
0.0186406774210659
0.0185122000728298
0.0155233269500264
0.0153748796159537
0.01804401744695
0.0180753958545455
0.0155748625566376
0.0153234184964605
0.0171242245618623
0.017203905821339
0.015468790751206
0.0157221696884144
0.0182098155573543
0.019987434412134
0.0163433302306385
0.0161649471362478
0.0192465942519791
0.0195369758693311
0.0165618349434424
0.0165846390573605
0.0201894783273498
0.0214809138736418
0.0168784764732596
0.0167046442059757
0.0220791361159155
0.0220453722028113
0.0219983359274299
0.015865309481365
0.0162155156070298
0.0156387700027264
0.0154914591348418
0.0155888647202302
0.0157364054507856
0.015387883773949
0.0153339022832455
0.0154087895464302
0.0154713470410402
0.0153349904725924
0.0152994995047452
0.0153446328907747
0.0153776313990045
0.0152860761204818
0.0152738880241576
0.0152932028658661
0.0153063074129685
0.0152936509050044
0.0152827949586763
0.0153032301595225
0.0153163443775636
0.0153161510403169
0.0153030622356143
0.0153241338068097
0.0153406389266896
0.0153270338863345
0.015310114534972
0.0153209832696458
0.0153353387816955
0.0153481190244133
0.0153349278137071
0.0153343010766535
0.0153472350779929
0.0153471120380754
0.0153341631210338
0.0153481683059974
0.0153646285705752
0.0153650912508533
0.0153484280200957
0.0153492671405776
0.0153657517278373
0.0153656194971226
0.0153491064303758
0.0154323011030497
0.0154653025758028
0.0154767771367327
0.0154458883045886
0.0154554201677293
0.0154873376995396
0.0155001273851479
0.0154674863655343
0.0154689782385337
0.0155014016544193
0.01577301508503
0.0156946855057987
0.0157303818048763
0.0158110989560505
0.015889967433034
0.0158345207554987
0.0159023172679375
0.0159258862179543
0.0162611539482164
0.0162720087159392
0.0163073763429275
0.0162975351978431
0.0167776398060462
0.0166993107025581
0.0172289526113186
0.0173049479035629
0.018988353336796
0.0185856660582766
0.0208870995016405
0.0447255542182452
0.0408435122361308
0.0203491214869393
0.0204694291885151
0.0429172953314494
0.0451542314941238
0.0204486319463353
0.0207294563509844
0.0430820543325934
0.0435964711364733
0.0208237872571464
0.0208986335860827
0.0487484870844334
0.0441157033525615
0.021524144571549
0.0223730460167622
0.043420538200671
0.0379525747113475
0.0216996394495869
0.0214902906698859
0.0375198294115405
0.0350335271291956
0.020815192957023
0.0203656985070971
0.0342715356039674
0.036668777684102
0.0193347544030469
0.0180915803459347
0.0328617934640686
0.0303196636578817
0.0170729092657553
0.016891096607863
0.0330939573694007
0.0301154784044382
0.0166725192930817
0.0166058149790306
0.0274737142978186
0.0252845264030435
0.0165659286048325
0.0165720051579831
0.0242611986247349
0.0228044489247186
0.0165566660473303
0.0161624969344944
0.0216935175576585
0.0205092080734412
0.0161125056335301
0.0160585198246254
0.0204442524401536
0.0159891120587217
0.0161025526426192
0.0161622662425405
0.0218312778326627
0.022739912175328
0.0161452780621796
0.01605104241845
0.0202822344458047
0.0153282860822869
0.0151293426279444
0.0151341560974131
0.0152865670402284
0.0159372418538188
0.0198892261528026
0.0191135181579696
0.0156806834003649
0.01603212451022
0.0194298073747959
0.0204127172734707
0.0164209182391643
0.0167964710779331
0.0211233299309383
0.0211288181564736
0.0166110855140741
0.016657037571213
0.0217147840968869
0.0224659376190488
0.0170417768357917
0.0170281522074265
0.0231017035487145
0.0234130528529448
0.0169002634902097
0.0162607798237842
0.0159072059307983
0.0227988574187856
0.0232478839247261
0.0243610330760902
0.0239089887240372
0.0165016903018106
0.0169710363579672
0.015940940382648
0.0157489819877318
0.0161476157196854
0.0164220856507665
0.0155841665169952
0.0155159632770999
0.0155450545805114
0.0156100426042031
0.0153992760067604
0.0153664976343875
0.0153649089442138
0.0153967517003664
0.0153063162173752
0.015293133667122
0.0153140813570006
0.0153293031785341
0.0153289932259651
0.0153139559709432
0.0153356697289502
0.015353972484044
0.015341183097715
0.0153245676008399
0.0153361163591236
0.0153501035535871
0.0153636318810701
0.0153509352775451
0.0153500786334343
0.0153627410832445
0.0153628409336389
0.0153502087676108
0.0153352769970499
0.015348403000705
0.0153630989016639
0.0153505276862165
0.0153498438077673
0.0153625165373547
0.0153613796258377
0.0153490272720655
0.0153488752211501
0.0153612338969852
0.0153782913702141
0.015362720463278
0.0153632024215564
0.0153790961436672
0.0153795528129332
0.0153638568484369
0.0153637147261664
0.0153794106917873
0.0153934256529846
0.0153775477003254
0.0154578951632169
0.015488295543262
0.015502734632108
0.0154707926680808
0.0154830010123534
0.0155157800677043
0.0155175120519204
0.0154850131744889
0.0157072065331695
0.0157838080628841
0.0158343215733312
0.015753311621349
0.0158589481101701
0.0159154160011111
0.0159572822013997
0.0159366568637866
0.015973064163331
0.0159867381015263
0.0164747409070483
0.0164737080085095
0.0164955917023175
0.0164915652839344
0.0168554783385971
0.0167870520161024
0.0173251899706861
0.0173930762707675
0.0188429028062504
0.018586684313561
0.0207412527877285
0.0475426233751736
0.0429354863868402
0.0203454663514791
0.0204057434471926
0.046279651052509
0.0517831472166784
0.0207716891278881
0.0186482093898496
0.018868299235002
0.0189484793802445
0.0187405609223318
0.0208635274463577
0.0569319520689715
0.050214969163605
0.0205129778611076
0.0207076151993781
0.05423412263815
0.0492909402457658
0.0204770336875692
0.0209168113302401
0.0479488242968644
0.0538304890232098
0.0213904159276542
0.0211457821984171
0.0550051139132119
0.0503930451232399
0.0238978577314324
0.025183352864569
0.0485979447022006
0.0415621705482838
0.0235568040698867
0.0233861228190486
0.0412446095775275
0.0384680733958406
0.0221598143094739
0.0204575608201938
0.0370628855508007
0.0432272501784215
0.0211304164718578
0.0197049775749818
0.0404574074171217
0.0449673917903361
0.018956831415469
0.018323615699363
0.0404510986510251
0.0364614730716636
0.0173739367662207
0.016959891485475
0.0339368027659663
0.031030703764672
0.0167952904214915
0.0166956146055192
0.0284669791301002
0.0261630966109753
0.0166151237243318
0.0162391330032261
0.0244414810838758
0.0229170879332941
0.0161917725050777
0.0162056513829205
0.0230209709944237
0.0242607185052863
0.0164368178449599
0.0172899866812314
0.0257035423815001
0.0273731926285714
0.0175702626591982
0.0174057705355304
0.0281551186703372
0.0301938419728802
0.0178900719765777
0.0173548250780337
0.0298210013249986
0.0259247444665112
0.0166488353316364
0.0170567079178715
0.0256936851712168
0.0238432272608166
0.0162326101761615
0.0159966408094996
0.0221047079714032
0.0241998920908509
0.0165848355951848
0.0162750565799794
0.021627926899785
0.0221134579353477
0.0168606820568914
0.0161224452041343
0.020702428163413
0.0200649248896909
0.0161554833129403
0.0163400563491918
0.0209188648304296
0.0218098860348027
0.0167727969845367
0.0168873745211035
0.0228812464984897
0.0227293823071619
0.0167354642341926
0.0169331929860206
0.0233676241799576
0.0244067418170095
0.0173151219351278
0.0175524646882656
0.0248784703454771
0.0247788593104159
0.0174294202495203
0.0179607883976719
0.0263579720211678
0.0256523619270981
0.0252079855093169
0.0171484435421058
0.0176986039088939
0.0183639566612927
0.0179112588207605
0.0268413001455519
0.0271581057058529
0.0279757053092219
0.0184745054493719
0.0187923950556223
0.0300487720066773
0.0292397369674769
0.0293372676307215
0.0189585208028517
0.0191191550912629
0.0185225293308307
0.0180688313164031
0.0178093810438902
0.0183820665511944
0.016506056230213
0.0162466750706736
0.0162309050398704
0.0164954085417826
0.0156224185359012
0.0155514970000581
0.015586061772357
0.0156550053913483
0.0156312176688874
0.0155710644516917
0.015390001934283
0.0154232918269129
0.0154165998880824
0.0153855613253165
0.0154062278528254
0.0154374245168368
0.0153547876007561
0.0153361847594532
0.015348377664204
0.0153640598610589
0.0153782854819313
0.0153640737223654
0.0153629420402505
0.0153771456968216
0.0153765092681564
0.0153624647045529
0.0153511261995993
0.0153638778357859
0.0153797828238434
0.0153675197507784
0.0153668853752598
0.0153790881524928
0.0153778896470038
0.0153657666943812
0.0153659845301328
0.0153780899808487
0.0153937901425253
0.0153813400785052
0.015365322338991
0.01537821518093
0.0153772208179988
0.0153642112825956
0.0153631939382874
0.0153758265935925
0.0153756267514724
0.0153630169447087
0.0153765465938593
0.0153921972785375
0.0153933455222751
0.0153772242550096
0.0153776887509679
0.0153936260916294
0.0154078604555598
0.0153913338312568
0.0153911766761361
0.0154075684468676
0.0154997952793856
0.0154694411198634
0.0154855241321909
0.0155179852884254
0.0155314906929356
0.0154980423064253
0.0155005468271014
0.0155336847278957
0.0157952728557355
0.015719140453388
0.0157750684764353
0.0158573514391651
0.0159413358291226
0.0158832783323151
0.0159076109099479
0.0159672866955012
0.0160157016959955
0.0160022514289354
0.016031701071432
0.0160449222993882
0.0165988380990815
0.0166114044380186
0.0166252229445576
0.0166025290736192
0.0169382026101171
0.0168806670345517
0.0174405311529722
0.0175040897497195
0.0176361066992943
0.017571953371084
0.0177154152977728
0.0177800253811601
0.019051313353774
0.0188561156873665
0.0209902025463731
0.0631316118350182
0.0549590789739512
0.0206552434469945
0.0209871739205823
0.0600254661647713
0.0609198024819231
0.0219123687373739
0.0212925455446027
0.0612334446571736
0.0577656719563559
0.024277335728235
0.0265336149662196
0.0614078953362655
0.055575808290862
0.0269056386277274
0.0271647927515799
0.0524168358644535
0.0452061260636963
0.0250419546647948
0.0247347470978003
0.0445215727205859
0.048394331960497
0.0246780648426546
0.0233699981385424
0.0480283547877218
0.051995640275918
0.0235232944815185
0.0215836726881037
0.0495337401950798
0.044530175083062
0.0202312769732968
0.0197504516356539
0.0499113802151024
0.044818524089595
0.018074549507172
0.0175977940768953
0.0408547834806267
0.0372226719363889
0.0172349735105293
0.0170283217507223
0.0347289920618677
0.0317226566943479
0.0167978681587641
0.0166287089464841
0.0290527528118029
0.026608799172257
0.0165278494065274
0.0170823722196282
0.0259854767999587
0.0268285362398062
0.0175973901721097
0.0176869845543254
0.0284758331032453
0.0307517189217949
0.0177836531582866
0.0179643443823878
0.0334199114370418
0.0363918349585382
0.0181434987376902
0.0178505819849961
0.0312342624552672
0.0338991929495417
0.0184578776043044
0.0179115745613786
0.0331161308425435
0.0285336100353367
0.017063867148478
0.017875577861207
0.0288601161105707
0.0313498889784631
0.0190626845061362
0.0185564905932588
0.0298942061047085
0.0268502532525545
0.0170025410488538
0.0174121779432115
0.026131721332954
0.0285884276442555
0.0175199832477035
0.0173403055811272
0.026478988609384
0.0247281050327918
0.0172419538588374
0.0171673778653964
0.0231081987987524
0.0219106940809753
0.0164738872540231
0.0164038209319738
0.0215953363595509
0.0227000940106978
0.0170323263389088
0.0171196862235462
0.0249682529419172
0.0245745070531492
0.0170066945079366
0.0169998142544635
0.0244673921418005
0.0252845221924481
0.0174850204696726
0.0184823890174897
0.0273949932811277
0.0270126867162319
0.0185065215898394
0.0184120965434516
0.0276283169968084
0.0281526854888604
0.0188874924419048
0.0191574917725497
0.0306961756690881
0.0332305853078011
0.0192723348674948
0.0190907869598078
0.032376080763686
0.031482894433621
0.0321688261766544
0.0190747085227597
0.0196331912991719
0.0183090363579264
0.0179637547143335
0.0163307904048098
0.0165831755297908
0.0165301003144968
0.0162901637996854
0.0163324409677772
0.0165380104485162
0.0156878705098204
0.0156201216635103
0.015593668228637
0.0156483127580866
0.0154492502250471
0.0154143052494633
0.0154271725290449
0.0154575950816003
0.0154723578195902
0.0154439097582223
0.0154354475960921
0.0154612252863476
0.0154492438782454
0.0154245146992502
0.015363945129454
0.0153783465080971
0.0153955158592322
0.0153817204752902
0.015381398910878
0.0153949064512712
0.0153936994917771
0.0153800748338017
0.0153790253488476
0.0153924404509046
0.0154094148873768
0.0153956718420496
0.0153838493931504
0.0153965035191281
0.0153952100264289
0.0153826571478846
0.0153811159358021
0.0153935482019859
0.0154097362620402
0.0153965983013653
0.0153965866257136
0.0154098915168144
0.0153936402146994
0.0153799906694928
0.0153783779728017
0.0153921441711194
0.0153904623159782
0.015377175213555
0.0153769739005708
0.0153901875994026
0.0154062500877164
0.0153901838317418
0.0153910375584071
0.0154077384147154
0.015422441283556
0.0154051883883405
0.0154053152771167
0.0154224174625135
0.0154220235210629
0.0154051373785082
0.0154812225988043
0.0155115596479
0.0155334324850148
0.0155004524394033
0.0155134468849166
0.015547589565948
0.0155502792309415
0.0155164761165825
0.0157314700156221
0.0158072749651248
0.0158803616611491
0.0157969661458381
0.0158188282580955
0.0159032036873393
0.015993300851916
0.0159318507928757
0.0159560408890204
0.0160193679173779
0.0160739134885048
0.0160603457131379
0.0160896637836443
0.016103406872971
0.0166901437789745
0.0167235014168712
0.0167335798872988
0.0166893038489509
0.017026515977845
0.0169797180082545
0.0170777169015716
0.0171193759034507
0.0172141622958322
0.017182238971161
0.0178670174132782
0.0179289038241597
0.0191688659565742
0.0189879482475174
0.0211394847001937
0.0702003186267503
0.0603588906595319
0.020824623347338
0.0212078519595744
0.0668757041325571
0.0694618500844861
0.0223523013961229
0.0214815521981985
0.0682066320768891
0.0663394921149614
0.0240646039900342
0.0262136800984145
0.0708843772437661
0.0620806535148005
0.0267225180456002
0.0250658852533898
0.0513923725923951
0.0468493450281985
0.0249545316560236
0.0246661722273228
0.0458987680291767
0.0492331313816106
0.0246553195479411
0.0248007005445045
0.0545949249155857
0.061636796911249
0.0252017519515033
0.0234819891886441
0.0564170880017454
0.0630374376615525
0.0243845928246279
0.0227884833976466
0.0608320707071404
0.0499347379167329
0.0209469216385332
0.0208935429075079
0.0554280071727
0.049204552640607
0.018714566503242
0.0181228190445627
0.0465835651252416
0.0420761374240436
0.0176775596855213
0.0173171603063065
0.0381646228324506
0.0397660488009115
0.0179345229247013
0.0176371001083108
0.0358942375172175
0.0324603685647989
0.017509477500759
0.0174473866767416
0.0295918954390603
0.0173857603992619
0.0173263712865739
0.0174183873743489
0.0166925658261317
0.01565516952598
0.0156108146664349
0.0170076239534424
0.0182622858069484
0.0309204458180047
0.0365745841166569
0.0182100779799967
0.0179601226028373
0.0337013188359642
0.0308714762759871
0.0177298148881971
0.0177681071860808
0.0301755209442569
0.0278802428372236
0.0172903916249234
0.0178469443543724
0.0295050432814806
0.0273640146236185
0.0175193523025594
0.0172692621929677
0.02558752399575
0.024220397540333
0.0171074349276462
0.016580007715329
0.0233005313126057
0.0245665390651223
0.016762035392336
0.0170009988985926
0.026089998955636
0.0279190891540885
0.0175151489515768
0.0173178925392498
0.0260019806813574
0.0244034982819016
0.0171741434747471
0.017145555196457
0.0162068712165307
0.0170363458075636
0.0246003037976136
0.0234935749477672
0.0171584925377495
0.0170493169385916
0.0172427929809029
0.0165298451156999
0.0174308762400334
0.0272059986392948
0.0288758251601164
0.0180125952902818
0.0173411772754093
0.0175982494602757
0.0180292672109229
0.0327352217363722
0.0298985584584618
0.0175945411274977
0.0182108679765917
0.0320374314533253
0.0340111399375956
0.0191410762155271
0.0197437104756667
0.0310386297348651
0.03124162521205