/*--------------------------------*- C++ -*----------------------------------*\
| =========                 |                                                 |
| \\      /  F ield         | OpenFOAM: The Open Source CFD Toolbox           |
|  \\    /   O peration     | Version:  2312                                  |
|   \\  /    A nd           | Website:  www.openfoam.com                      |
|    \\/     M anipulation  |                                                 |
\*---------------------------------------------------------------------------*/
FoamFile
{
    version     2.0;
    format      ascii;
    arch        "LSB;label=32;scalar=64";
    class       volScalarField;
    location    "1200";
    object      p;
}
// * * * * * * * * * * * * * * * * * * * * * * * * * * * * * * * * * * * * * //

dimensions      [0 2 -2 0 0 0 0];

internalField   nonuniform List<scalar> 
209453
(
83644.890172856
83660.0352205655
83681.7225063879
83658.8797432208
83644.4141427962
83632.9501270654
83623.0087636193
83610.7510218618
83615.6040492651
83623.6728585355
83623.1283417381
83620.4232640648
83620.4284721454
83631.0943829209
83630.6205765016
83639.261490048
83643.1054300375
83641.023574884
83640.5427761982
83653.3636546066
83661.7367218847
83667.7541700361
83653.2803662493
83643.8065635844
83644.0477876912
83654.0289652658
83653.6039971538
83656.9985879125
83663.5959701801
83661.9641903354
83657.1814393742
83660.549300764
83661.8310916958
83660.8612391684
83659.6510589435
83658.0192761831
83663.6843127811
83670.6465548357
83658.1961114527
83657.5202987946
83671.1796927481
83658.3127612307
83653.1039871373
83658.4593562791
83677.7494653473
83619.5408341975
83627.1617678325
83602.2852368649
83574.4007759536
83581.9072011427
83598.2989040106
83595.1139373192
83570.7996650485
83660.4149994675
83668.7800405578
83628.5721556137
83618.7014858284
83612.7007788648
83612.9372935064
83613.4482445787
83613.1066919154
83612.0991014161
83613.4820110343
83608.1048757324
83608.0196522652
83602.0965950241
83600.5233411798
83582.8069499484
83598.2263992755
83615.6519425468
83611.6650288726
83630.3989468059
83667.3377189966
83661.9399134489
83641.7968040251
83620.8935118236
83624.7581456454
83601.0868511957
83589.804015808
83596.9983849429
83603.4879562635
83607.8924644974
83606.8375826327
83607.5886414711
83609.5979445171
83610.3413872427
83608.8796567733
83611.4293153955
83612.0046960789
83614.4243169608
83614.4932718898
83611.2854364416
83611.7804264426
83614.6213217271
83614.9039455038
83624.1504605224
83623.126321921
83633.1291254744
83632.7084813199
83643.6517706317
83644.6698494712
83655.4122119881
83654.5226824343
83666.5620671296
83666.869258377
83663.1897815195
83663.0194024923
83675.3124194137
83675.4682626329
83669.3748176561
83668.723834885
83666.7877534783
83669.1713133056
83669.7383405831
83667.2971411097
83656.1034186307
83665.7956434604
83667.0055722951
83671.0460972605
83688.6055799162
83674.0854463763
83673.9124602321
83682.7258644851
83680.9139844367
83677.0372304067
83677.2859283695
83678.7663797456
83681.1984126856
83680.9489938482
83679.1404924483
83678.9626547163
83677.4245529551
83677.4584175232
83674.9461360427
83673.1334091873
83670.9313500187
83670.4898358065
83659.0735679643
83659.3474841122
83652.4748745507
83651.313260261
83646.0095677315
83646.9804187688
83645.2886235389
83644.4744016553
83646.9326806102
83654.3324835971
83656.1763156546
83634.6038916654
83631.0359932953
83641.1038140911
83606.5109736229
83610.4894050007
83603.1349380708
83600.3224270871
83589.1567516537
83598.2879409137
83609.0318942133
83617.5718791564
83637.6940416532
83612.0098121532
83604.4428461687
83622.4303751231
83609.297051801
83605.6745676343
83607.1411010148
83608.2925312988
83611.6114911334
83609.570413731
83603.4684678008
83601.4598366174
83603.7448783962
83603.2066203063
83603.3220018118
83601.6903542588
83602.8258291095
83602.8538425566
83605.2867483506
83614.0085634152
83599.7601123522
83597.9748209657
83608.3304030587
83602.5089941339
83600.1738814065
83600.6379468666
83601.2920859247
83603.0231724628
83602.7163489411
83605.3305565999
83605.4628758503
83607.6947903393
83607.7469762374
83608.3669970303
83608.350096486
83608.8094931814
83608.7057593345
83605.721099369
83605.934397525
83606.0980582783
83605.8931333114
83606.2403982878
83606.4340856992
83607.1481588605
83607.0324313909
83608.1343228232
83608.4255835404
83608.5487453105
83608.3405132039
83614.229453719
83614.1156453353
83623.5698542538
83624.3085057527
83631.3663532085
83631.6521253275
83632.4382619582
83632.0739771956
83642.0935316064
83642.6949636906
83654.6676609303
83654.029074608
83668.577695115
83668.8270416205
83686.4057235223
83686.0643248883
83680.1802965629
83680.8785432712
83692.0438204062
83690.6006735264
83688.0019226595
83689.1688710013
83683.688038963
83683.9130927786
83682.4036191114
83681.6845868782
83684.8671916884
83684.7551160257
83692.0662567885
83692.2455880493
83687.831610864
83686.8419165561
83683.8448296683
83686.4852415774
83684.4327336397
83677.6515370598
83689.5205550076
83691.1122795121
83689.1592530439
83689.7197162943
83689.0258526853
83684.0409919923
83668.6097969169
83667.6074348406
83660.8322033018
83660.9777747046
83652.8303949171
83653.498551849
83645.9712648936
83644.6028149804
83640.681631531
83642.0148160897
83638.1161280481
83637.8506486697
83636.2794796413
83636.7268302535
83635.1428847321
83632.0562897076
83625.5850992741
83627.5305162627
83618.2798962497
83618.8839154437
83606.9431575523
83597.8151006312
83602.4782917685
83605.0206019695
83603.3475723201
83601.806673096
83603.1737105783
83602.5764248
83601.6277820544
83601.4537377287
83600.4879071931
83599.917899653
83596.7675507084
83598.5955728749
83600.8038867228
83592.7609510324
83592.6998870322
83596.6864264817
83596.038809103
83595.485389292
83598.0164239345
83597.9866972477
83600.270478076
83600.2681097341
83602.6811489848
83602.5768574183
83604.6038210373
83604.8518129332
83602.0272735481
83601.871723555
83603.1076660006
83603.3324763023
83603.5124608752
83603.2619072191
83603.5753450954
83603.8514880368
83605.679563241
83605.3939938904
83610.6463953985
83610.5357983004
83620.0840227054
83620.9550021257
83627.6665314215
83627.9249199494
83630.3836023035
83630.1217562529
83640.8246941772
83641.3604892085
83642.3143293575
83641.7804319583
83654.8281664146
83655.5184865003
83672.0336705546
83671.7998869803
83692.997765062
83693.0791986072
83711.1644286095
83710.2900800993
83705.6555637547
83706.5844515056
83700.5860850914
83699.762951573
83695.9244705722
83696.7996348031
83707.6282625092
83707.5138360175
83702.1967081448
83702.3096340026
83697.7072007856
83697.0960744316
83693.434961205
83694.1373347871
83702.920435752
83702.3054690258
83699.4683276489
83700.0210951129
83696.1991454954
83693.8840629953
83691.5659729868
83695.0975112223
83703.0291606912
83703.49981383
83702.6805556735
83702.9260373283
83693.5472398675
83698.2938975836
83702.1558916575
83702.8814398794
83714.4480758006
83708.3568753817
83706.3657279837
83706.9552216702
83710.1731274625
83708.86770883
83712.9670545276
83712.5706492327
83705.3614266854
83708.3903535339
83705.923857948
83698.7301977524
83701.0464792484
83706.1269185206
83703.9861538053
83702.355028843
83699.7104383717
83696.6952797317
83699.8998122239
83688.9648046413
83705.5613637885
83699.2955222039
83683.9945060596
83673.9072813615
83666.7798215837
83672.8577056221
83655.7576107879
83653.3170851367
83653.488362489
83653.3299205144
83648.9803086728
83649.470650137
83637.4108729751
83636.7910156269
83635.5154083022
83637.2408075961
83635.9563392775
83634.1443228167
83632.2488893776
83631.465935599
83635.4972082423
83629.8264339948
83629.9952154149
83634.5249487775
83626.6217496958
83625.8405665609
83619.684797517
83603.9574321687
83610.412672578
83613.3348813147
83608.8380385219
83598.2195172873
83602.5433701607
83604.9602719187
83602.5507569621
83603.6790271137
83598.8032659738
83598.3640687378
83600.6620576893
83601.6065077962
83597.7267766466
83597.6672262022
83597.5596551447
83597.2485298699
83595.2256580837
83595.4271833602
83593.0130525948
83589.3671746043
83592.8006056607
83593.3611898364
83595.4489946533
83595.3686743081
83597.3710411024
83597.43768335
83599.721778369
83599.7443338681
83596.5139849127
83596.9422110244
83599.9035297992
83599.6008090688
83600.9232401712
83601.0613844045
83601.3824138459
83601.3219572654
83601.9646875062
83601.502233111
83600.3706430007
83601.5515401986
83596.099471915
83596.524259806
83599.8431677966
83599.4191019475
83599.6153449691
83600.291434247
83604.0087105358
83604.1145431089
83614.3383182225
83613.8518241051
83619.6768655192
83619.2776959273
83624.4487110965
83624.6917906702
83634.7084718978
83634.0036101571
83638.0151616142
83638.6065739991
83652.7938077477
83652.0977233615
83654.6407529743
83655.3424391781
83673.496473826
83673.3084112888
83697.7527844663
83697.5999080926
83721.9078642892
83721.3364330095
83716.7943500071
83717.6772898517
83735.1391911315
83735.1267765433
83727.7668538881
83727.7774796459
83720.3968789517
83720.3077933351
83713.6996368398
83713.7622602272
83726.9287196545
83727.3135684272
83719.5386344271
83719.1212908563
83713.7488078649
83713.9212211646
83707.6381081624
83707.7707364699
83718.1355525841
83718.15602643
83711.9449956391
83712.1122660325
83707.8228960018
83707.8323390561
83708.8033982612
83705.130849601
83696.588304374
83710.8147307267
83703.0828187663
83688.5379972059
83676.2176424743
83660.4299373864
83636.025048107
83606.7088727496
83579.9872987382
83550.7290514904
83533.4711565433
83535.1654864308
83565.6240093144
83566.7803857738
83583.3835078404
83580.6205459083
83592.9634288214
83593.3284048301
83587.6708952795
83585.9405156676
83593.3522467804
83594.1435000063
83590.6638120591
83589.8877000328
83595.6798512378
83595.1578129208
83593.3700102181
83594.235196947
83594.2423625507
83593.8025134203
83589.937862762
83590.8069870295
83589.8146522863
83584.4422716348
83586.5891242125
83590.2368914423
83591.2550395842
83592.2827468029
83593.979441075
83584.766857338
83590.7596330978
83592.037342781
83594.7094197277
83594.4901466703
83593.1110499426
83593.3056311781
83593.3613752464
83593.129439642
83594.0812004209
83593.7450052956
83593.1624918454
83592.2956035031
83591.0333651741
83588.1624947448
83591.4259132541
83590.2205804464
83588.6360298476
83587.1390290176
83599.5853229751
83594.2609558681
83591.6854140606
83595.1006532252
83596.2392729467
83598.3722723147
83596.3122448207
83600.3162219402
83600.9752638109
83611.9079458913
83643.5588916563
83640.8563088862
83604.1184950439
83581.2648656126
83555.1432399059
83567.5884436861
83584.9352170543
83588.9517648512
83584.1186244006
83601.4807155046
83597.7118148522
83605.7810306105
83609.4968530938
83639.7377104507
83620.5650538333
83611.2666704842
83645.2999075824
83588.0102050579
83590.9993867493
83583.3401094674
83577.3081307294
83568.6629314422
83584.0330131009
83582.9793106205
83558.4274781636
83571.7623755567
83584.514175477
83592.2496610022
83588.5829361963
83593.4470418626
83595.1355308315
83596.3587591352
83593.9642738662
83597.7773007193
83598.7743423982
83598.0630150862
83597.7852740115
83594.5355737389
83595.6972267075
83593.9113433728
83593.0480695557
83570.1454801933
83584.5345939993
83592.0394888544
83601.6964022479
83600.7212934288
83586.4976752102
83593.5365851902
83605.531785176
83613.5296398665
83626.2153382395
83613.2597269429
83612.2720925408
83613.217518423
83611.5660125769
83607.5220090217
83608.5227989429
83615.0234169265
83614.3863292571
83621.8497619649
83623.244967272
83628.092637706
83627.0257125154
83637.7766045494
83638.8021776483
83648.0527946471
83647.431903749
83665.2324349481
83665.5763263492
83671.4783442272
83671.1631422871
83697.2850827847
83697.1497597884
83726.8837835945
83726.6119242246
83724.5338971497
83724.9904245257
83747.5440109739
83748.0115828268
83742.6866749412
83742.4212833377
83762.9907183676
83763.8284268121
83753.9856388002
83753.1529954777
83744.3469728122
83744.9471240191
83735.3296617146
83734.7861488877
83743.5137767359
83744.6000108187
83749.9323824332
83750.0829181825
83744.8510687729
83744.7341952887
83739.5215724945
83739.6953914329
83734.9600572599
83734.7842508902
83731.2883075233
83731.4084953963
83728.1086730863
83728.0099467956
83725.1832497928
83725.3008783677
83721.0670455414
83721.2433149644
83721.1485798093
83720.558152161
83724.5499258029
83725.2458055865
83727.1708664839
83726.1898893188
83729.9008610977
83730.9178189124
83734.3562634203
83733.2430073553
83740.1691219662
83741.0309337092
83745.4177493967
83743.5134319385
83758.9692463753
83758.7494203954
83755.7005047407
83754.1578609211
83752.747129546
83749.8977665704
83742.5055933571
83738.0816709145
83731.5285219319
83716.7626928443
83695.3535475633
83668.3008072394
83631.2997252261
83589.136999085
83559.2367990302
83542.4053224792
83526.0135255876
83510.6347739167
83507.4834508352
83549.5426797965
83552.7592915301
83575.2883910709
83572.6172615539
83565.758789571
83567.516796127
83582.4898249702
83580.8431985866
83578.0804505625
83578.7660556467
83588.0807286357
83588.1343509811
83586.7172063144
83587.0698272878
83587.326234899
83585.6365091267
83584.0598964464
83587.9387150176
83590.2951231579
83587.7873396335
83585.2467333202
83587.6759508608
83589.8025938561
83590.4965885046
83584.0651880047
83591.4969456394
83602.1051626271
83631.4893845195
83582.6217030761
83595.1591757026
83598.3783272222
83573.1729873184
83649.4395903831
83625.8424550859
83624.5123429039
83645.0824464633
83632.4698215579
83627.2534013796
83620.5010751443
83620.013469396
83615.5072308824
83616.5940320929
83620.8207097158
83619.7547182575
83630.2939718871
83631.230803866
83638.5616934998
83637.8316784912
83651.5521456812
83652.2394591409
83670.4893413751
83670.6549275601
83689.8780263155
83689.6269787834
83723.6380126453
83724.1232840706
83726.2259909127
83726.1772276045
83752.2576744709
83753.4362208666
83752.7240374639
83751.8659994354
83776.9443947567
83778.3367820642
83771.5475442307
83770.413248836
83785.8568754998
83787.0958341054
83795.2525124387
83795.4869921168
83789.7504426355
83789.5503968091
83783.1512153105
83783.4343671184
83777.0343028816
83776.7228315618
83772.5777422349
83772.7811341953
83766.6466408847
83766.5046509891
83760.1675927254
83760.3970134305
83754.4278609932
83754.2255354295
83763.1908026399
83763.4112745466
83758.4930551537
83758.3220190746
83752.2042021105
83752.4161819415
83747.5910275785
83747.3846885285
83741.8531082229
83742.1636501001
83738.1052508142
83737.8573915086
83733.3306132745
83733.6283801248
83730.0226524517
83729.9231742572
83727.3563676398
83727.1606194669
83730.6246854527
83730.8114369252
83726.7395247872
83726.6466001296
83720.3019363184
83720.4539540193
83717.616960406
83718.3040225381
83716.6269311962
83715.619114356
83715.0446884218
83715.4451899672
83713.7828807724
83716.6658701601
83722.2414580814
83720.1952434248
83714.1341415487
83714.026835166
83697.3849329982
83704.6849928919
83716.9714075109
83717.4028634591
83713.9053391178
83712.2338230703
83700.7190624035
83703.8060309979
83695.7493704804
83692.0015706379
83678.4585266603
83684.4606633177
83669.3329397134
83666.355154964
83650.0935205967
83648.3890498658
83632.9930042552
83631.8042097768
83636.1039019544
83634.8244796928
83637.561321221
83637.6681125335
83620.2285267475
83620.2001300079
83622.6758598415
83622.7783936675
83623.0262892495
83623.0660778863
83624.7004575675
83624.3854808634
83618.901244597
83621.1815591163
83633.1890189984
83626.396631694
83621.0916247574
83631.014491487
83615.3358008866
83612.4547705086
83621.4791310674
83623.0017930933
83618.3548356804
83612.3303788778
83607.8234054135
83618.9534178579
83588.366292363
83593.435359415
83602.1353510402
83605.3548496419
83599.8547202222
83594.1237959188
83588.2749055078
83583.1920769064
83577.6648490358
83578.0607439032
83577.328325293
83581.0029350342
83583.2584175047
83574.2162613115
83585.883860019
83583.9286604343
83589.0142163318
83594.5176384397
83593.5135862674
83593.6971248543
83598.6814636826
83595.4657470873
83610.9931437653
83608.3305277143
83614.9193813088
83628.7126538859
83630.2900801401
83615.9881315299
83616.0590732014
83617.0909620322
83620.6508848715
83621.9593482081
83610.1707877656
83611.2208151843
83611.0935874539
83608.3812842282
83620.494183638
83622.0723311733
83621.3612315985
83620.1645109885
83647.092795617
83647.1003861691
83665.5808865116
83666.0873361058
83682.6378752416
83681.6896064228
83701.4065569766
83702.2140407065
83713.8251362533
83713.0341956698
83737.2360210821
83739.1953171489
83749.9339740934
83748.4623465881
83774.0119811206
83775.8280957449
83780.1575338115
83778.4400421954
83799.4136722622
83800.8772385895
83809.6289443049
83809.7725672927
83807.5318844678
83807.3014828513
83802.9092265497
83803.2285149083
83798.4272002706
83798.0416388724
83810.2327794846
83810.1953857167
83806.5051412011
83806.5907208659
83799.9387053991
83799.9151722153
83794.4609084176
83794.4027746067
83787.3836628512
83787.5475909615
83782.5653327094
83782.4675069979
83775.4654513559
83775.5864100421
83770.0193814791
83769.8320838609
83778.0564793262
83778.1769158358
83771.4539600009
83771.1831713188
83765.8724668358
83766.0669964611
83759.8262139984
83759.5003591683
83754.2690620306
83754.4798469534
83748.797743604
83748.4563617685
83743.8070279
83744.1250003233
83739.3485489106
83738.9709174775
83734.8253872016
83734.8222587097
83739.7249278982
83739.6855585875
83736.4555047549
83736.3120493487
83740.3258145803
83740.4243927919
83736.5632200003
83736.6355146459
83730.7902126159
83730.2853436862
83725.8000851617
83727.109590148
83726.0196896722
83725.1993585432
83725.1365080295
83724.7420568113
83731.2685903849
83730.1449361041
83731.3843887647
83732.8759453861
83735.4132744642
83734.2835724073
83741.6251634863
83742.6240564764
83739.0700935443
83737.0180939657
83735.5223705064
83737.444530524
83732.6982571444
83732.3321111481
83726.4427988146
83726.1544125011
83721.4954753748
83721.6843701931
83729.9416366787
83728.4792837507
83725.8795609529
83730.6593092461
83723.9776501416
83719.6866737472
83709.2128854009
83712.6298181947
83699.4664883041
83695.270140027
83682.0542110601
83688.6647019206
83673.713949947
83667.5770964838
83654.810606886
83664.6466056196
83649.0651264212
83650.4010269373
83616.2480796796
83617.0299998418
83585.8663415783
83584.7355337236
83603.9660424315
83604.814018471
83614.3374480675
83614.4789695721
83599.8590610613
83599.6440422244
83605.6896032422
83607.4786847801
83612.3432028291
83611.8367066822
83613.6936804383
83614.2750489189
83603.7692201535
83599.3973826654
83616.9166788271
83612.9732123356
83605.5136337559
83615.9002706279
83578.8972681452
83593.1120430568
83578.8253957809
83572.8761148339
83559.5190956342
83556.4414527494
83537.2086111105
83543.5904758764
83494.4574163426
83497.7516380466
83463.2311819534
83461.6068666143
83437.2148141459
83436.647838232
83405.2045885853
83411.3733359762
83486.5263828234
83487.3480346359
83539.635706924
83536.9430794413
83533.4880052211
83532.054323018
83562.0236781503
83561.5758568594
83553.0023597487
83558.3370848273
83569.6439907227
83557.6788047474
83578.2392891972
83578.9831477887
83570.5593400107
83551.9454874155
83569.8374536142
83570.076833017
83573.2160831938
83577.1844557679
83587.6277743583
83582.3902196234
83589.3672804906
83594.6661662784
83596.9642827416
83594.3090043207
83600.2057380662
83608.1583254131
83612.2395470302
83603.5761731526
83594.4707754559
83591.8614995401
83599.0136099772
83602.3580326632
83605.5286950821
83602.7048271395
83593.8978255478
83596.3511868561
83591.7858483975
83587.3975759454
83581.0583418887
83586.2612090412
83578.1525929628
83575.9035379184
83582.2597964493
83583.8777127611
83585.8574602627
83584.4247571311
83588.7446410156
83589.5320837798
83599.5329196163
83598.1379610239
83604.065714822
83605.0881888918
83626.4363532612
83626.2993661751
83643.983923748
83643.8422433395
83645.1851722816
83645.8669083221
83672.0141056464
83671.1537313283
83697.1917212655
83699.2113298366
83721.4831280729
83719.4470010186
83738.4915755412
83740.4405037005
83763.6053042563
83761.7831952226
83783.5552685544
83784.7428393609
83789.8736450447
83789.7959571251
83799.6941507264
83799.6560419087
83804.3801005767
83804.6087979421
83807.1932127667
83806.9327351264
83819.0160707872
83818.5151207108
83820.5954413437
83821.0291558718
83818.5034268513
83818.2574832806
83815.4358724971
83815.6527857569
83825.0736719884
83824.4777205491
83819.3063445083
83819.6525749957
83815.6777854229
83815.399308224
83808.9971336726
83809.1493434274
83803.4168928497
83803.3590309411
83796.378364364
83796.320488688
83790.9885457736
83791.071355174
83784.1518698487
83783.9766537783
83791.5649945459
83791.5583151867
83785.3819760979
83785.3963655101
83778.6869309109
83778.7477222179
83772.9758844029
83772.9620554442
83766.6032783609
83766.7295966673
83760.8681077066
83760.8163148013
83754.8626423448
83755.0121681699
83749.6868270038
83749.507969253
83744.1671554921
83744.5505141992
83749.9984875303
83749.7217677353
83744.8778450788
83744.8174098679
83750.1235350357
83750.1023106746
83746.6035497324
83746.4258536764
83750.5684651376
83750.6682633573
83746.7050945054
83746.7529472482
83740.6204094957
83740.1006502159
83748.215778823
83748.7655760526
83755.6073211355
83755.1431274563
83747.9440624047
83748.8903591563
83744.7008328114
83742.4153666356
83740.8386014763
83743.0823219236
83738.125733089
83737.1464984852
83732.6324713005
83732.4416250287
83726.9848481641
83727.6746779073
83717.049221646
83717.2516825361
83711.5077275485
83716.0430738168
83711.5690835107
83704.5659444328
83706.3622857299
83705.5044058867
83694.3394557005
83693.3416407002
83679.2327963807
83688.3267169025
83666.3827292319
83667.2912174417
83667.9870436836
83666.913747144
83649.9034744607
83659.9886814331
83635.8192259331
83632.6889971406
83593.7333271846
83594.6583847651
83555.9513142597
83557.7082687222
83532.2188958461
83529.5675843765
83561.2610416712
83562.4190746319
83584.8989644001
83584.5625171299
83560.7115056596
83561.4943696994
83582.9593037726
83581.3616590793
83591.4482316904
83586.0891927007
83601.6699093826
83600.5879633897
83591.2140559563
83593.6634830304
83575.3278561035
83580.0686210382
83570.5084613993
83578.6591181412
83555.5791125328
83551.5293110561
83519.2882185398
83516.3722505699
83493.8428059235
83491.3716207837
83470.275160393
83474.5665416705
83419.5082622992
83421.6460690007
83378.1004172229
83379.2418771849
83353.7543581191
83344.4937409239
83312.6865082854
83329.7428286437
83322.8071814973
83303.8725356374
83364.7801478612
83361.5831193729
83463.4659494564
83464.8817707
83468.8227875805
83463.144003473
83455.0008204322
83459.3958994966
83502.1849230476
83504.3347127928
83545.392879752
83534.9220643475
83542.7703679851
83540.8594461567
83557.6354363314
83549.2625498525
83557.6950824512
83557.3705503613
83556.0233949648
83551.2882913063
83540.4395412753
83546.9704437308
83544.6678141007
83546.4935497575
83558.2057762765
83557.7879051128
83572.7674789288
83569.9676862362
83576.6581371297
83578.0646040204
83590.0084351152
83586.3829999665
83582.7662684596
83569.0014210302
83556.7223096886
83570.6073872762
83572.0353688441
83572.192681885
83561.8451106611
83560.7127295995
83563.8411492636
83563.8270870884
83566.6297796804
83567.0798561823
83569.8905697646
83568.8446408755
83580.2098685824
83580.9296769294
83596.3165191103
83596.052102701
83619.7169816957
83619.6483713669
83611.4603073925
83611.580911545
83643.6131105266
83643.205113411
83675.2638887073
83676.2882978817
83712.0052795356
83710.4628347881
83725.1269857992
83724.9504738496
83721.238540751
83721.0583014162
83742.7070153667
83743.1956830924
83759.4597545138
83759.2554023795
83776.2204943388
83776.4546304536
83781.7368953421
83780.1437665933
83794.6682047959
83795.8425966789
83808.6342544302
83807.5266481468
83814.5539013937
83815.1933396549
83821.4078071556
83819.5538925014
83825.545533542
83826.9759717468
83829.8563823505
83828.7906232996
83827.1422190988
83827.9142574024
83832.4168926784
83831.3181494062
83829.348482271
83830.2134308019
83825.5971365445
83825.0108839351
83821.3862227503
83821.8670593565
83815.8227267608
83815.5264057675
83810.1383916256
83810.3851745136
83803.7836023802
83803.6562972648
83798.2105318302
83798.3044607439
83804.3556220105
83804.181622649
83797.9564539902
83798.0350629521
83792.0756129692
83792.0084775589
83785.6189053072
83785.6302093934
83779.6228782108
83779.636355064
83773.3123737714
83773.2537143827
83767.1919553271
83767.2555579883
83761.2488723269
83761.1184360861
83755.4126531838
83755.5311166153
83761.23262467
83761.0904732896
83755.0892403776
83755.4189472886
83760.7951397232
83760.5556505606
83755.4077481243
83755.3175824797
83760.4484994857
83760.4446135492
83756.6960854114
83756.4367250108
83760.1716549166
83760.3308092452
83755.8517500231
83755.684830933
83763.356802563
83763.7498798689
83769.9486816022
83769.3384636017
83760.9375456846
83760.5640688427
83752.6772427862
83753.6274486108
83748.9449755305
83746.6257638382
83744.8448736756
83747.1748540052
83741.9849940054
83740.529550017
83735.0536751683
83735.5935632785
83729.906673549
83729.9282855008
83722.5001217814
83721.2926030179
83712.7333074569
83714.4921922711
83702.5764451223
83703.1294326544
83691.1387916196
83688.9009198539
83693.5471127178
83691.8288453949
83680.198243857
83680.6464430494
83678.7232265443
83679.6494464485
83676.7329763527
83675.8521001273
83677.7366850375
83675.1904864609
83659.841308541
83665.4989863491
83642.4907416802
83647.4835256583
83611.6306879603
83609.1315378903
83562.7978464455
83561.4912434566
83516.0234285078
83519.6403417877
83492.712759022
83487.9804460155
83452.6991428532
83457.0488859025
83499.4734659994
83497.4943752432
83532.769674902
83533.719640714
83506.9933449515
83505.8913230669
83535.0667473182
83535.677877262
83565.7109891729
83562.5346198976
83579.6451654239
83584.9484237835
83573.3977083362
83559.5634540015
83530.7292345649
83486.9458402648
83441.7316386169
83389.8237267263
83346.0621738892
83322.8122188439
83320.8656463399
83304.5042570889
83302.2475750351
83358.7321759998
83356.5780804921
83418.5515837965
83416.2149171933
83406.1531562882
83405.0662113829
83398.2151692753
83399.169269028
83392.0239997228
83390.9559529369
83451.5581457388
83453.4486387398
83501.7940227038
83502.2690563168
83541.2399582972
83535.8323429013
83535.265471247
83536.2425773071
83505.243194625
83502.6720512642
83456.0982247502
83455.1458475193
83452.6588310113
83454.4279917712
83499.240400534
83500.4477717957
83539.4990826313
83532.2686842574
83532.540772873
83534.0688158346
83509.0835346667
83515.2512982164
83535.3388400296
83536.1900632871
83504.3948648887
83465.1766943652
83466.8498064341
83428.328415689
83434.6682486793
83369.2258139387
83372.041223334
83414.8241859348
83352.2583777658
83346.1617932382
83346.6163591002
83331.899610291
83330.1924860581
83314.2033395226
83316.6046061441
83306.6403246515
83305.561641213
83314.6970931805
83315.0955763361
83312.652119817
83309.689232045
83308.6903771344
83314.5035061396
83309.7124358325
83306.6132024902
83306.0115447549
83311.8257084053
83286.3605144729
83295.2029635202
83295.5768216146
83283.1511356828
83293.2562523719
83297.9606301183
83303.7458137968
83302.8048515069
83311.0730664564
83311.1960920493
83323.6676206601
83323.7717571307
83327.7327881627
83331.949212263
83333.2793700309
83329.4024151676
83332.0958189588
83333.9741350166
83363.9923955941
83364.6984284768
83373.589212512
83373.177886921
83384.5432652146
83384.7265244059
83399.6045856894
83399.0654138054
83415.0453404143
83415.8145377903
83432.5329747712
83431.5028229933
83446.9862588007
83448.2042925796
83462.2154967287
83460.9138516016
83472.0826649276
83473.2538050465
83482.7765816405
83482.0825512971
83491.0049496443
83490.8010207479
83503.954578902
83504.9677760764
83526.3006210446
83524.3143549197
83563.7948178768
83565.9704853478
83625.2936523216
83624.4450861706
83694.4511792895
83693.8242998043
83752.0723215516
83753.7399365173
83786.6075270226
83784.7998264505
83800.6798278011
83802.2186856022
83809.532194211
83808.0490811211
83813.1166548535
83814.6395815727
83817.1475244311
83815.7841072797
83818.0828365692
83819.2584797278
83818.9852619288
83818.0335155349
83817.1820315507
83817.9911306064
83815.1197780023
83814.6034126969
83811.6482784803
83812.0244341778
83807.5040660702
83807.203606276
83802.4398587116
83802.6531491373
83797.0584941504
83796.9663901756
83791.2829938121
83791.3299434764
83785.1840002325
83785.161148954
83779.011295211
83778.9756567799
83772.735196921
83772.8192134846
83766.7555525095
83766.6776663731
83771.9804703627
83772.0448010769
83765.9634509539
83765.6883106263
83770.7908915259
83770.9741600679
83765.2926500477
83765.4232190644
83770.035502329
83769.983137325
83765.6049951396
83765.9278579994
83768.9434057314
83768.727688742
83773.4559401024
83773.7953135825
83775.9052726685
83775.6548441791
83779.2787955945
83779.6323292044
83780.4557013681
83780.1408200149
83772.9203100268
83773.8083727167
83763.9434853721
83764.144351962
83756.4961856861
83755.6972193052
83749.2366677165
83751.0015318519
83748.6130937652
83747.1870352181
83743.2465693812
83744.3625508088
83737.6854792007
83737.3065832572
83731.4710948596
83731.844424329
83722.9663634153
83723.2843252022
83712.5243647416
83712.3890224114
83702.8060415342
83701.7148471654
83689.2199505818
83690.341721467
83688.6969579837
83688.6689320544
83684.6603786961
83683.7086367315
83667.3714358623
83669.2884342463
83662.4612380968
83658.8075529753
83643.7792165197
83647.3146400203
83644.2519022426
83645.0814200756
83624.1702259166
83620.94511148
83593.0200184791
83599.4998781868
83559.5043742115
83553.4848238563
83516.8131745795
83509.8245912086
83459.4763794322
83465.9050083198
83442.2790368742
83434.6525562151
83398.7343044794
83406.3012594555
83380.5390149372
83374.9793045301
83425.279511035
83428.9013766597
83470.2827600909
83468.3028655949
83451.0492294263
83449.7228705903
83416.3012237271
83410.9825436433
83385.9776902576
83392.2533570578
83328.8477887834
83325.7857546636