/*--------------------------------*- C++ -*----------------------------------*\
  =========                 |
  \\      /  F ield         | OpenFOAM: The Open Source CFD Toolbox
   \\    /   O peration     | Website:  https://openfoam.org
    \\  /    A nd           | Version:  13
     \\/     M anipulation  |
\*---------------------------------------------------------------------------*/
FoamFile
{
    format      ascii;
    class       volScalarField;
    location    "6";
    object      nuTilda;
}
// * * * * * * * * * * * * * * * * * * * * * * * * * * * * * * * * * * * * * //

dimensions      [0 2 -1 0 0 0 0];

internalField   nonuniform List<scalar> 
54636
(
0.0248439
0.015759
0.0118345
0.010003
0.00914297
0.00874724
0.00856928
0.00849012
0.00845458
0.00843725
0.00842678
0.00841777
0.00840747
0.00839483
0.00837985
0.00836372
0.00834901
0.00833795
0.00833556
0.00834357
0.00835853
0.00837763
0.00839614
0.00841116
0.0084225
0.00843014
0.00843506
0.00843824
0.00843994
0.00844086
0.00844131
0.00844137
0.0084413
0.00844135
0.00844114
0.00844107
0.00844096
0.0084407
0.00844058
0.00844053
0.00844065
0.00844058
0.00844054
0.00844052
0.00844051
0.00844051
0.00844051
0.00844051
0.0084405
0.0084405
0.0084405
0.0084405
0.0084405
0.0084405
0.0084405
0.0084405
0.0084405
0.0084405
0.0084403
0.00842311
0.0408994
0.0348926
0.0311065
0.0287883
0.0274224
0.0266498
0.0262289
0.0260065
0.0258896
0.0258266
0.0257876
0.0257567
0.0257254
0.0256928
0.0256578
0.0256276
0.0256064
0.0255948
0.0255951
0.0256115
0.0256396
0.0256756
0.0257115
0.0257427
0.0257672
0.0257851
0.0257977
0.025806
0.0258114
0.0258146
0.0258162
0.0258173
0.0258172
0.0258174
0.0258173
0.0258171
0.0258169
0.0258166
0.0258165
0.0258163
0.0258162
0.0258161
0.025816
0.025816
0.025816
0.025816
0.025816
0.0258159
0.0258159
0.0258159
0.0258159
0.0258159
0.0258159
0.0258159
0.0258159
0.0258159
0.0258159
0.0258159
0.0258151
0.0257678
0.0459083
0.0426429
0.0402992
0.038727
0.0377321
0.0371348
0.0367911
0.0365996
0.0364949
0.0364364
0.0364003
0.0363721
0.0363451
0.0363347
0.0363285
0.0363261
0.0363279
0.0363332
0.0363423
0.0363645
0.0363929
0.0364096
0.0364175
0.0364206
0.0364216
0.0364224
0.0364229
0.0364233
0.0364237
0.0364237
0.0364234
0.036423
0.0364225
0.0364219
0.0364214
0.0364211
0.0364207
0.0364204
0.0364202
0.0364201
0.03642
0.0364199
0.0364198
0.0364197
0.0364197
0.0364197
0.0364197
0.0364196
0.0364196
0.0364196
0.0364196
0.0364196
0.0364196
0.0364196
0.0364196
0.0364196
0.0364196
0.0364196
0.0364187
0.0363719
0.0478076
0.0459549
0.044559
0.0435857
0.0429501
0.0425574
0.0423255
0.0421935
0.0421201
0.0420793
0.0420554
0.0420384
0.042038
0.0422749
0.0424996
0.042645
0.0427305
0.0427932
0.042819
0.0428444
0.042868
0.0426805
0.0424979
0.0423488
0.042241
0.0421696
0.0421251
0.0420989
0.0420838
0.0420752
0.0420703
0.0420674
0.0420655
0.0420643
0.0420635
0.0420629
0.0420625
0.0420622
0.0420619
0.0420618
0.0420617
0.0420616
0.0420615
0.0420615
0.0420615
0.0420614
0.0420614
0.0420614
0.0420614
0.0420614
0.0420614
0.0420614
0.0420614
0.0420614
0.0420614
0.0420614
0.0420614
0.0420614
0.0420607
0.0420257
0.0486569
0.0475049
0.0466248
0.0460039
0.0455941
0.0453385
0.0451863
0.0450991
0.0450507
0.0450248
0.0450114
0.0450087
0.0451839
0.0457777
0.0468119
0.0471936
0.0472864
0.0473643
0.0473621
0.0473381
0.0473408
0.047032
0.0463557
0.0458586
0.0455203
0.0453048
0.0451751
0.0451004
0.0450588
0.0450362
0.045024
0.0450175
0.0450139
0.0450119
0.0450107
0.04501
0.0450095
0.0450092
0.0450089
0.0450088
0.0450087
0.0450086
0.0450086
0.0450085
0.0450085
0.0450085
0.0450085
0.0450085
0.0450085
0.0450085
0.0450085
0.0450085
0.0450085
0.0450085
0.0450085
0.0450085
0.0450085
0.0450085
0.0450079
0.0449836
0.0490966
0.0483187
0.0477228
0.0473014
0.047023
0.046849
0.0467454
0.0466861
0.0466535
0.0466367
0.0466299
0.0466493
0.0471181
0.0481237
0.0490072
0.0492039
0.0489788
0.0490932
0.0492239
0.0489893
0.0489776
0.0484574
0.047881
0.0474401
0.0471287
0.0469235
0.0467958
0.0467201
0.0466769
0.0466528
0.0466397
0.0466326
0.0466287
0.0466266
0.0466254
0.0466247
0.0466242
0.0466239
0.0466237
0.0466236
0.0466235
0.0466235
0.0466234
0.0466234
0.0466234
0.0466234
0.0466234
0.0466234
0.0466233
0.0466233
0.0466233
0.0466233
0.0466233
0.0466233
0.0466233
0.0466233
0.0466233
0.0466233
0.046623
0.0466058
0.0493516
0.0487926
0.0483642
0.0480613
0.0478614
0.0477367
0.0476625
0.0476201
0.047597
0.0475853
0.047581
0.0475986
0.0480794
0.0490537
0.0497562
0.0498124
0.0497081
0.049735
0.0498062
0.0497006
0.0496241
0.0490056
0.0485637
0.0482234
0.0479808
0.0478189
0.047717
0.0476556
0.0476201
0.0476
0.047589
0.0475829
0.0475796
0.0475777
0.0475767
0.0475761
0.0475757
0.0475755
0.0475753
0.0475753
0.0475752
0.0475751
0.0475751
0.0475751
0.0475751
0.0475751
0.047575
0.047575
0.047575
0.047575
0.047575
0.047575
0.047575
0.047575
0.047575
0.047575
0.047575
0.047575
0.0475748
0.0475621
0.0495122
0.0490915
0.0487691
0.0485414
0.0483912
0.0482977
0.0482421
0.0482105
0.0481932
0.0481845
0.0481812
0.048193
0.0485531
0.0492408
0.0498378
0.0498578
0.0498359
0.0498088
0.0498567
0.0498348
0.0497095
0.0492543
0.0489275
0.0486728
0.0484893
0.0483658
0.0482874
0.0482399
0.0482122
0.0481965
0.0481878
0.048183
0.0481803
0.0481789
0.0481781
0.0481776
0.0481773
0.0481771
0.048177
0.0481769
0.0481769
0.0481768
0.0481768
0.0481768
0.0481768
0.0481768
0.0481768
0.0481768
0.0481768
0.0481768
0.0481768
0.0481768
0.0481768
0.0481768
0.0481768
0.0481768
0.0481768
0.0481768
0.0481765
0.0481669
0.0496199
0.049292
0.0490407
0.0488634
0.0487465
0.0486739
0.0486307
0.0486062
0.0485928
0.0485862
0.0485839
0.0485883
0.0487348
0.0490915
0.049883
0.0498733
0.0498734
0.0498727
0.0498725
0.0498734
0.0497778
0.0494202
0.0491665
0.0489683
0.0488252
0.0487286
0.0486672
0.0486298
0.048608
0.0485956
0.0485887
0.0485849
0.0485828
0.0485817
0.048581
0.0485807
0.0485804
0.0485803
0.0485802
0.0485802
0.0485801
0.0485801
0.0485801
0.0485801
0.04858
0.04858
0.04858
0.04858
0.04858
0.04858
0.04858
0.04858
0.04858
0.04858
0.04858
0.04858
0.04858
0.04858
0.0485799
0.0485723
0.0496955
0.0494328
0.0492316
0.0490896
0.0489962
0.0489381
0.0489037
0.0488842
0.0488735
0.0488682
0.0488665
0.0488701
0.0489798
0.049225
0.0498997
0.0498995
0.0498995
0.0498994
0.0498992
0.0498995
0.0498235
0.0495368
0.0493335
0.0491748
0.04906
0.0489825
0.0489331
0.0489031
0.0488855
0.0488756
0.04887
0.048867
0.0488653
0.0488644
0.0488639
0.0488636
0.0488635
0.0488634
0.0488633
0.0488633
0.0488632
0.0488632
0.0488632
0.0488632
0.0488632
0.0488632
0.0488632
0.0488632
0.0488632
0.0488632
0.0488632
0.0488632
0.0488632
0.0488632
0.0488632
0.0488632
0.0488632
0.0488632
0.048863
0.048857
0.0497506
0.0495355
0.0493707
0.0492545
0.0491781
0.0491307
0.0491026
0.0490867
0.0490781
0.0490738
0.0490723
0.0490796
0.0492389
0.0495623
0.0499227
0.0499163
0.0499181
0.0499174
0.0499151
0.0499179
0.0498564
0.0496215
0.0494544
0.0493241
0.0492301
0.0491667
0.0491263
0.0491018
0.0490875
0.0490794
0.0490749
0.0490725
0.0490712
0.0490704
0.04907
0.0490698
0.0490697
0.0490696
0.0490695
0.0490695
0.0490695
0.0490695
0.0490695
0.0490695
0.0490695
0.0490695
0.0490695
0.0490695
0.0490695
0.0490695
0.0490695
0.0490695
0.0490695
0.0490695
0.0490695
0.0490695
0.0490695
0.0490695
0.0490693
0.0490644
0.0497921
0.0496126
0.0494753
0.0493785
0.0493148
0.0492754
0.049252
0.0492388
0.0492317
0.0492282
0.049227
0.0492329
0.0493963
0.0496893
0.0499316
0.0499469
0.0499335
0.0499403
0.0499463
0.0499318
0.0498897
0.049685
0.0495438
0.0494347
0.0493565
0.0493041
0.0492708
0.0492507
0.049239
0.0492324
0.0492287
0.0492268
0.0492257
0.0492251
0.0492248
0.0492246
0.0492245
0.0492245
0.0492244
0.0492244
0.0492244
0.0492244
0.0492244
0.0492244
0.0492244
0.0492244
0.0492244
0.0492244
0.0492244
0.0492244
0.0492244
0.0492244
0.0492244
0.0492244
0.0492244
0.0492244
0.0492244
0.0492244
0.0492243
0.0492201
0.049824
0.0496721
0.0495558
0.0494739
0.0494201
0.0493867
0.049367
0.0493559
0.0493499
0.0493469
0.0493457
0.0493476
0.04941
0.0495817
0.0499268
0.0499089
0.0498764
0.0499151
0.0499089
0.0498787
0.0498833
0.0497143
0.0496016
0.0495136
0.0494504
0.0494079
0.049381
0.0493647
0.0493553
0.04935
0.0493471
0.0493455
0.0493446
0.0493442
0.0493439
0.0493438
0.0493437
0.0493437
0.0493437
0.0493436
0.0493436
0.0493436
0.0493436
0.0493436
0.0493436
0.0493436
0.0493436
0.0493436
0.0493436
0.0493436
0.0493436
0.0493436
0.0493436
0.0493436
0.0493436
0.0493436
0.0493436
0.0493436
0.0493435
0.04934
0.0498491
0.0497188
0.0496192
0.049549
0.0495029
0.0494743
0.0494574
0.0494479
0.0494427
0.04944
0.0494387
0.0494386
0.0494504
0.0495745
0.0497706
0.0498285
0.0497358
0.0497714
0.0498191
0.0498181
0.0498161
0.0497015
0.0496217
0.0495592
0.049514
0.0494836
0.0494643
0.0494526
0.0494458
0.049442
0.0494399
0.0494387
0.0494381
0.0494378
0.0494376
0.0494375
0.0494374
0.0494374
0.0494374
0.0494374
0.0494374
0.0494374
0.0494374
0.0494373
0.0494373
0.0494373
0.0494373
0.0494373
0.0494373
0.0494373
0.0494373
0.0494373
0.0494373
0.0494373
0.0494373
0.0494373
0.0494373
0.0494373
0.0494373
0.0494342
0.0498691
0.0497562
0.0496698
0.049609
0.0495691
0.0495443
0.0495297
0.0495215
0.0495169
0.0495145
0.0495133
0.0495127
0.0495141
0.0495388
0.0495705
0.049589
0.0495874
0.0495946
0.0496004
0.0496041
0.0496057
0.049591
0.0495731
0.0495559
0.0495417
0.0495312
0.0495239
0.0495192
0.0495163
0.0495146
0.0495136
0.049513
0.0495127
0.0495125
0.0495124
0.0495124
0.0495124
0.0495123
0.0495123
0.0495123
0.0495123
0.0495123
0.0495123
0.0495123
0.0495123
0.0495123
0.0495123
0.0495123
0.0495123
0.0495123
0.0495123
0.0495123
0.0495123
0.0495123
0.0495123
0.0495123
0.0495123
0.0495123
0.0495122
0.0495096
0.0498854
0.0497866
0.0497108
0.0496575
0.0496224
0.0496006
0.0495878
0.0495805
0.0495765
0.0495743
0.0495732
0.0495725
0.0495724
0.0495748
0.0495792
0.0495834
0.0495854
0.049587
0.0495882
0.0495891
0.0495896
0.0495884
0.049586
0.049583
0.0495802
0.0495778
0.0495759
0.0495746
0.0495738
0.0495732
0.0495729
0.0495727
0.0495726
0.0495725
0.0495724
0.0495724
0.0495724
0.0495724
0.0495724
0.0495724
0.0495724
0.0495724
0.0495724
0.0495724
0.0495724
0.0495724
0.0495724
0.0495724
0.0495724
0.0495724
0.0495724
0.0495724
0.0495724
0.0495724
0.0495724
0.0495724
0.0495724
0.0495724
0.0495723
0.04957
0.0498986
0.0498106
0.0497427
0.0496944
0.0496623
0.0496422
0.0496301
0.0496232
0.0496193
0.0496172
0.0496161
0.0496155
0.0496151
0.0496152
0.0496158
0.0496166
0.0496173
0.0496178
0.0496182
0.0496183
0.0496183
0.0496182
0.0496179
0.0496174
0.049617
0.0496165
0.0496162
0.0496159
0.0496157
0.0496155
0.0496154
0.0496154
0.0496153
0.0496153
0.0496153
0.0496153
0.0496152
0.0496152
0.0496152
0.0496152
0.0496152
0.0496152
0.0496152
0.0496152
0.0496152
0.0496152
0.0496152
0.0496152
0.0496152
0.0496152
0.0496152
0.0496152
0.0496152
0.0496152
0.0496152
0.0496152
0.0496152
0.0496152
0.0496152
0.049613
0.0499077
0.0498248
0.0497584
0.0497092
0.049675
0.0496527
0.0496388
0.0496305
0.0496257
0.049623
0.0496215
0.0496207
0.0496203
0.0496201
0.0496201
0.049621
0.0496218
0.0496223
0.0496227
0.0496221
0.0496217
0.0496213
0.049621
0.0496208
0.0496206
0.0496205
0.0496204
0.0496203
0.0496202
0.0496202
0.0496201
0.0496201
0.0496201
0.0496201
0.0496201
0.04962
0.04962
0.04962
0.04962
0.04962
0.04962
0.04962
0.04962
0.04962
0.04962
0.04962
0.04962
0.04962
0.04962
0.04962
0.04962
0.04962
0.04962
0.04962
0.04962
0.04962
0.04962
0.04962
0.04962
0.049618
0.0248529
0.015797
0.0119176
0.0101332
0.00931111
0.00894105
0.0087785
0.00870771
0.00867662
0.00866162
0.00865255
0.00864462
0.00863535
0.00862361
0.00860923
0.00859334
0.00857866
0.00856752
0.00856424
0.00857046
0.00858357
0.00860163
0.00861967
0.00863471
0.00864662
0.00865432
0.00865979
0.00866314
0.00866511
0.00866627
0.00866687
0.00866691
0.00866708
0.00866707
0.00866688
0.00866683
0.0086668
0.00866655
0.00866649
0.00866639
0.00866651
0.00866645
0.00866642
0.0086664
0.00866639
0.00866639
0.00866639
0.00866639
0.00866639
0.00866639
0.00866639
0.00866639
0.00866639
0.00866639
0.00866639
0.00866639
0.00866639
0.00866639
0.00866618
0.00864826
0.0409351
0.0350085
0.0313305
0.0291234
0.0278528
0.027152
0.0267798
0.0265878
0.0264892
0.026437
0.0264051
0.0263795
0.0263523
0.0263218
0.0262875
0.0262573
0.0262359
0.0262236
0.0262214
0.0262334
0.0262567
0.0262895
0.0263241
0.0263554
0.0263807
0.0263996
0.0264129
0.0264219
0.0264281
0.0264317
0.0264337
0.026435
0.0264352
0.0264353
0.0264353
0.0264352
0.0264351
0.0264349
0.0264348
0.0264346
0.0264345
0.0264344
0.0264344
0.0264344
0.0264343
0.0264343
0.0264343
0.0264343
0.0264343
0.0264343
0.0264343
0.0264343
0.0264343
0.0264343
0.0264343
0.0264343
0.0264343
0.0264343
0.0264335
0.0263847
0.0459406
0.0427488
0.0405034
0.0390319
0.0381242
0.0375932
0.0372955
0.0371338
0.0370477
0.037001
0.0369732
0.0369517
0.0369299
0.0369201
0.0369122
0.0369069
0.0369068
0.0369087
0.0369127
0.0369282
0.036949
0.0369625
0.0369714
0.0369776
0.0369824
0.0369864
0.0369894
0.0369917
0.0369932
0.0369941
0.0369944
0.0369944
0.0369941
0.0369937
0.0369933
0.0369931
0.0369928
0.0369925
0.0369924
0.0369922
0.0369922
0.0369921
0.036992
0.0369919
0.0369919
0.0369919
0.0369919
0.0369919
0.0369919
0.0369919
0.0369919
0.0369919
0.0369919
0.0369919
0.0369919
0.0369919
0.0369919
0.0369919
0.0369909
0.0369442
0.0478295
0.0460284
0.0447024
0.0438015
0.0432289
0.0428846
0.0426867
0.0425771
0.0425178
0.0424867
0.0424714
0.042463
0.0424667
0.0426958
0.0429062
0.0430366
0.0431182
0.0431607
0.0431789
0.0431961
0.0432087
0.043021
0.0428487
0.0427134
0.0426191
0.0425589
0.0425229
0.0425023
0.0424909
0.0424845
0.0424809
0.0424788
0.0424774
0.0424765
0.0424758
0.0424754
0.042475
0.0424748
0.0424746
0.0424744
0.0424743
0.0424742
0.0424742
0.0424742
0.0424742
0.0424741
0.0424741
0.0424741
0.0424741
0.0424741
0.0424741
0.0424741
0.0424741
0.0424741
0.0424741
0.0424741
0.0424741
0.0424741
0.0424734
0.0424392
0.0486714
0.047554
0.0467214
0.0461498
0.0457832
0.0455608
0.045432
0.0453602
0.0453219
0.0453041
0.0453001
0.0453147
0.0455186
0.0461905
0.0471804
0.0474989
0.0475764
0.0476523
0.047632
0.0476192
0.0476319
0.0472138
0.0465375
0.046055
0.0457373
0.0455417
0.0454278
0.0453643
0.04533
0.0453118
0.0453022
0.0452972
0.0452944
0.0452928
0.0452919
0.0452913
0.045291
0.0452907
0.0452905
0.0452904
0.0452903
0.0452902
0.0452902
0.0452902
0.0452901
0.0452901
0.0452901
0.0452901
0.0452901
0.0452901
0.0452901
0.0452901
0.0452901
0.0452901
0.0452901
0.0452901
0.0452901
0.0452901
0.0452896
0.0452661
0.0491067
0.0483529
0.04779
0.047403
0.0471546
0.0470038
0.0469165
0.0468679
0.0468423
0.0468311
0.0468311
0.0468658
0.0474232
0.0485213
0.0494192
0.0493261
0.0491391
0.0493353
0.0493377
0.049163
0.049313
0.0485937
0.047997
0.0475597
0.0472633
0.0470755
0.0469628
0.0468981
0.0468622
0.0468428
0.0468324
0.0468268
0.0468238
0.0468222
0.0468212
0.0468207
0.0468203
0.0468201
0.0468199
0.0468198
0.0468197
0.0468197
0.0468196
0.0468196
0.0468196
0.0468196
0.0468196
0.0468196
0.0468196
0.0468196
0.0468196
0.0468196
0.0468196
0.0468196
0.0468196
0.0468196
0.0468196
0.0468196
0.0468192
0.0468027
0.0493589
0.0488174
0.0484131
0.0481353
0.0479572
0.0478492
0.0477868
0.0477521
0.0477337
0.0477252
0.0477238
0.0477465
0.0482927
0.0494093
0.0499281
0.0499222
0.0498849
0.0498946
0.0499173
0.0498849
0.0498339
0.0490758
0.048631
0.0482988
0.0480705
0.0479239
0.0478346
0.0477826
0.0477533
0.0477372
0.0477284
0.0477237
0.0477211
0.0477197
0.0477189
0.0477184
0.0477181
0.0477179
0.0477178
0.0477177
0.0477176
0.0477176
0.0477176
0.0477176
0.0477175
0.0477175
0.0477175
0.0477175
0.0477175
0.0477175
0.0477175
0.0477175
0.0477175
0.0477175
0.0477175
0.0477175
0.0477175
0.0477175
0.0477173
0.0477052
0.0495178
0.0491104
0.0488062
0.0485974
0.0484638
0.0483829
0.0483361
0.0483101
0.0482962
0.0482894
0.048287
0.0483007
0.048714
0.0495708
0.049926
0.049908
0.049842
0.0498798
0.049907
0.0498401
0.049847
0.0493079
0.0489783
0.0487289
0.048556
0.0484442
0.0483756
0.0483354
0.0483126
0.0483
0.0482931
0.0482893
0.0482873
0.0482861
0.0482855
0.0482851
0.0482848
0.0482847
0.0482846
0.0482845
0.0482845
0.0482845
0.0482844
0.0482844
0.0482844
0.0482844
0.0482844
0.0482844
0.0482844
0.0482844
0.0482844
0.0482844
0.0482844
0.0482844
0.0482844
0.0482844
0.0482844
0.0482844
0.0482842
0.048275
0.0496242
0.0493067
0.0490697
0.0489072
0.0488033
0.0487404
0.0487042
0.048684
0.0486732
0.0486677
0.0486656
0.0486748
0.0489396
0.049559
0.049912
0.0498984
0.0498781
0.0498841
0.0498966
0.0498767
0.0498806
0.0494618
0.049206
0.049012
0.0488772
0.0487897
0.0487359
0.0487043
0.0486863
0.0486764
0.0486709
0.048668
0.0486663
0.0486654
0.0486649
0.0486646
0.0486644
0.0486643
0.0486642
0.0486642
0.0486642
0.0486641
0.0486641
0.0486641
0.0486641
0.0486641
0.0486641
0.0486641
0.0486641
0.0486641
0.0486641
0.0486641
0.0486641
0.0486641
0.0486641
0.0486641
0.0486641
0.0486641
0.0486639
0.0486567
0.049699
0.0494446
0.0492549
0.0491248
0.0490417
0.0489915
0.0489626
0.0489466
0.048938
0.0489335
0.0489319
0.0489396
0.0491425
0.0496143
0.0499172
0.049905
0.0499026
0.049903
0.0499032
0.0499016
0.0499046
0.0495698
0.0493648
0.0492095
0.0491015
0.0490313
0.0489882
0.0489628
0.0489484
0.0489404
0.048936
0.0489336
0.0489323
0.0489316
0.0489312
0.048931
0.0489308
0.0489307
0.0489307
0.0489306
0.0489306
0.0489306
0.0489306
0.0489306
0.0489306
0.0489306
0.0489306
0.0489306
0.0489306
0.0489306
0.0489306
0.0489306
0.0489306
0.0489306
0.0489306
0.0489306
0.0489306
0.0489306
0.0489304
0.0489247
0.0497535
0.0495452
0.0493899
0.0492834
0.0492155
0.0491745
0.0491509
0.0491379
0.049131
0.0491275
0.0491263
0.0491338
0.049344
0.0497597
0.0499521
0.0499423
0.0499216
0.0499289
0.0499415
0.0499205
0.0499227
0.0496475
0.049479
0.0493519
0.0492637
0.0492065
0.0491714
0.0491507
0.049139
0.0491325
0.049129
0.0491271
0.0491261
0.0491255
0.0491252
0.049125
0.0491249
0.0491248
0.0491248
0.0491247
0.0491247
0.0491247
0.0491247
0.0491247
0.0491247
0.0491247
0.0491247
0.0491247
0.0491247
0.0491247
0.0491247
0.0491247
0.0491247
0.0491247
0.0491247
0.0491247
0.0491247
0.0491247
0.0491246
0.0491198
0.0497945
0.0496208
0.0494913
0.0494026
0.049346
0.0493119
0.0492923
0.0492815
0.0492758
0.0492731
0.0492723
0.0492792
0.0494654
0.0498287
0.0499912
0.0499631
0.0499359
0.0499597
0.049962
0.0499345
0.0499491
0.0497053
0.0495633
0.0494574
0.0493844
0.0493373
0.0493085
0.0492916
0.049282
0.0492767
0.0492738
0.0492723
0.0492715
0.049271
0.0492708
0.0492707
0.0492706
0.0492705
0.0492705
0.0492705
0.0492705
0.0492704
0.0492704
0.0492704
0.0492704
0.0492704
0.0492704
0.0492704
0.0492704
0.0492704
0.0492704
0.0492704
0.0492704
0.0492704
0.0492704
0.0492704
0.0492704
0.0492704
0.0492703
0.0492664
0.049826
0.049679
0.0495694
0.0494944
0.0494465
0.0494177
0.0494012
0.0493921
0.0493872
0.0493848
0.0493837
0.0493873
0.0495156
0.0497911
0.0499841
0.0499609
0.0499456
0.0499501
0.0499607
0.0499462
0.049968
0.049741
0.0496233
0.049536
0.0494759
0.0494371
0.0494135
0.0493997
0.0493919
0.0493876
0.0493853
0.0493841
0.0493834
0.0493831
0.0493829
0.0493828
0.0493827
0.0493827
0.0493827
0.0493826
0.0493826
0.0493826
0.0493826
0.0493826
0.0493826
0.0493826
0.0493826
0.0493826
0.0493826
0.0493826
0.0493826
0.0493826
0.0493826
0.0493826
0.0493826
0.0493826
0.0493826
0.0493826
0.0493825
0.0493792
0.0498508
0.0497247
0.0496308
0.0495665
0.0495255
0.0495009
0.0494867
0.0494789
0.0494748
0.0494726
0.0494714
0.0494711
0.0494994
0.0496379
0.0498213
0.0498476
0.0498281
0.0498362
0.0498464
0.0498396
0.0498515
0.0497211
0.049641
0.0495802
0.0495378
0.0495101
0.0494932
0.0494832
0.0494775
0.0494744
0.0494728
0.0494719
0.0494714
0.0494711
0.049471
0.0494709
0.0494709
0.0494708
0.0494708
0.0494708
0.0494708
0.0494708
0.0494708
0.0494708
0.0494708
0.0494708
0.0494708
0.0494708
0.0494708
0.0494708
0.0494708
0.0494708
0.0494708
0.0494708
0.0494708
0.0494708
0.0494708
0.0494708
0.0494707
0.0494678
0.0498707
0.0497614
0.0496799
0.0496242
0.0495887
0.0495674
0.0495551
0.0495484
0.0495447
0.0495428
0.0495417
0.049541
0.0495436
0.0495668
0.0495949
0.049612
0.0496188
0.049623
0.0496257
0.0496274
0.0496276
0.0496128
0.0495954
0.0495793
0.0495664
0.049557
0.0495508
0.0495469
0.0495445
0.0495431
0.0495423
0.0495419
0.0495416
0.0495415
0.0495414
0.0495414
0.0495414
0.0495413
0.0495413
0.0495413
0.0495413
0.0495413
0.0495413
0.0495413
0.0495413
0.0495413
0.0495413
0.0495413
0.0495413
0.0495413
0.0495413
0.0495413
0.0495413
0.0495413
0.0495413
0.0495413
0.0495413
0.0495413
0.0495412
0.0495387
0.0498868
0.0497911
0.0497197
0.0496708
0.0496397
0.0496209
0.0496101
0.0496042
0.049601
0.0495992
0.0495983
0.0495977
0.0495978
0.0495999
0.0496046
0.0496087
0.0496113
0.0496128
0.0496138
0.0496137
0.0496134
0.049612
0.0496096
0.0496069
0.0496044
0.0496023
0.0496008
0.0495997
0.049599
0.0495986
0.0495983
0.0495982
0.0495981
0.049598
0.049598
0.049598
0.0495979
0.0495979
0.0495979
0.0495979
0.0495979
0.0495979
0.0495979
0.0495979
0.0495979
0.0495979
0.0495979
0.0495979
0.0495979
0.0495979
0.0495979
0.0495979
0.0495979
0.0495979
0.0495979
0.0495979
0.0495979
0.0495979
0.0495979
0.0495956
0.0498998
0.0498146
0.0497506
0.0497064
0.0496779
0.0496606
0.0496505
0.0496448
0.0496418
0.0496401
0.0496392
0.0496387
0.0496386
0.0496387
0.0496399
0.049641
0.0496418
0.0496423
0.0496426
0.0496422
0.0496417
0.0496413
0.0496409
0.0496405
0.0496401
0.0496397
0.0496394
0.0496392
0.0496391
0.049639
0.0496389
0.0496388
0.0496388
0.0496388
0.0496387
0.0496387
0.0496387
0.0496387
0.0496387
0.0496387
0.0496387
0.0496387
0.0496387
0.0496387
0.0496387
0.0496387
0.0496387
0.0496387
0.0496387
0.0496387
0.0496387
0.0496387
0.0496387
0.0496387
0.0496387
0.0496387
0.0496387
0.0496387
0.0496386
0.0496366
0.0499086
0.0498283
0.0497655
0.0497203
0.0496899
0.0496705
0.0496588
0.049652
0.0496482
0.0496461
0.0496449
0.0496443
0.0496441
0.0496441
0.0496447
0.0496453
0.0496458
0.0496461
0.0496464
0.0496459
0.0496453
0.0496449
0.0496447
0.0496445
0.0496443
0.0496442
0.0496442
0.0496441
0.0496441
0.049644
0.049644
0.049644
0.049644
0.0496439
0.0496439
0.0496439
0.0496439
0.0496439
0.0496439
0.0496439
0.0496439
0.0496439
0.0496439
0.0496439
0.0496439
0.0496439
0.0496439
0.0496439
0.0496439
0.0496439
0.0496439
0.0496439
0.0496439
0.0496439
0.0496439
0.0496439
0.0496439
0.0496439
0.0496438
0.0496419
0.0248538
0.0158007
0.0119257
0.0101465
0.00932897
0.00896223
0.00880188
0.0087326
0.00870256
0.00868844
0.00868022
0.00867324
0.00866512
0.00865466
0.00864141
0.00862649
0.00861245
0.00860171
0.0085978
0.00860224
0.00861348
0.00862998
0.00864691
0.00866145
0.00867288
0.00868042
0.00868561
0.00868882
0.00869069
0.00869192
0.0086924
0.00869264
0.00869272
0.00869283
0.00869262
0.00869257
0.00869255
0.00869232
0.00869229
0.00869219
0.00869232
0.00869226
0.00869223
0.00869222
0.00869221
0.00869221
0.00869221
0.00869221
0.00869221
0.00869221
0.00869221
0.00869221
0.00869221
0.00869221
0.00869221
0.00869221
0.00869221
0.0086922
0.008692
0.00867406
0.0409405
0.0350266
0.0313675
0.0291813
0.0279297
0.0272442
0.0268832
0.0266987
0.0266054
0.0265568
0.0265283
0.0265056
0.0264813
0.0264529
0.0264205
0.0263917
0.0263709
0.0263582
0.0263545
0.026362
0.026381
0.0264107
0.0264438
0.0264741
0.026499
0.0265177
0.0265311
0.0265404
0.0265465
0.0265504
0.0265525
0.0265538
0.0265542
0.0265544
0.0265545
0.0265543
0.0265544
0.0265541
0.0265541
0.0265539
0.0265538
0.0265537
0.0265537
0.0265537
0.0265537
0.0265536
0.0265536
0.0265536
0.0265536
0.0265536
0.0265536
0.0265536
0.0265536
0.0265536
0.0265536
0.0265536
0.0265536
0.0265536
0.0265528
0.026504
0.0459459
0.0427677
0.040542
0.0390922
0.0382048
0.0376899
0.0374042
0.0372509
0.0371704
0.0371281
0.0371043
0.0370866
0.0370674
0.0370578
0.0370511
0.0370456
0.0370445
0.0370448
0.0370465
0.0370547
0.0370697
0.0370811
0.0370905
0.0370977
0.0371039
0.0371093
0.0371136
0.0371169
0.037119
0.0371205
0.0371211
0.0371214
0.0371213
0.0371209
0.0371207
0.0371205
0.0371202
0.03712
0.0371199
0.0371198
0.0371197
0.0371196
0.0371195
0.0371195
0.0371195
0.0371195
0.0371194
0.0371194
0.0371194
0.0371194
0.0371194
0.0371194
0.0371194
0.0371194
0.0371194
0.0371194
0.0371194
0.0371194
0.0371185
0.0370721
0.0478334
0.0460421
0.044731
0.0438467
0.0432895
0.0429579
0.0427694
0.0426663
0.0426118
0.042586
0.042577
0.0425757
0.0425819
0.0427978
0.0430117
0.0431312
0.0432029
0.0432393
0.0432527
0.0432612
0.0432697
0.0430862
0.0429205
0.0427912
0.0427023
0.0426466
0.042614
0.0425959
0.0425861
0.0425808
0.0425778
0.0425761
0.042575
0.0425743
0.0425737
0.0425733
0.042573
0.0425728
0.0425726
0.0425725
0.0425724
0.0425723
0.0425723
0.0425722
0.0425722
0.0425722
0.0425722
0.0425722
0.0425722
0.0425722
0.0425722
0.0425722
0.0425722
0.0425722
0.0425722
0.0425722
0.0425722
0.0425722
0.0425715
0.0425378
0.048674
0.0475634
0.0467411
0.046181
0.0458252
0.0456118
0.0454896
0.0454225
0.045388
0.0453735
0.0453746
0.0454004
0.0456063
0.0462731
0.0472743
0.0475362
0.0475849
0.0476254
0.0476229
0.0476191
0.0476427
0.0472422
0.0465706
0.0460941
0.0457833
0.0455943
0.0454858
0.0454262
0.0453946
0.0453781
0.0453696
0.0453651
0.0453627
0.0453614
0.0453605
0.04536
0.0453597
0.0453594
0.0453593
0.0453592
0.0453591
0.045359
0.045359
0.045359
0.045359
0.045359
0.0453589
0.0453589
0.0453589
0.0453589
0.0453589
0.0453589
0.0453589
0.0453589
0.0453589
0.0453589
0.0453589
0.0453589
0.0453584
0.0453353
0.0491084
0.0483594
0.0478038
0.0474249
0.0471842
0.0470397
0.046957
0.0469116
0.0468884
0.0468794
0.0468832
0.0469296
0.047502
0.0485733
0.0494394
0.0493278
0.0491373
0.0493144
0.0493281
0.0491649
0.0494994
0.0486214
0.0480179
0.0475819
0.0472904
0.0471082
0.0470005
0.0469397
0.0469064
0.0468887
0.0468794
0.0468744
0.0468718
0.0468704
0.0468695
0.046869
0.0468687
0.0468685
0.0468683
0.0468683
0.0468682
0.0468681
0.0468681
0.0468681
0.0468681
0.0468681
0.0468681
0.0468681
0.0468681
0.0468681
0.0468681
0.0468681
0.0468681
0.0468681
0.0468681
0.0468681
0.0468681
0.0468681
0.0468677
0.0468515
0.0493602
0.0488222
0.0484232
0.0481513
0.0479788
0.0478754
0.0478163
0.0477838
0.0477668
0.0477592
0.0477587
0.0477836
0.0483336
0.0494898
0.0498808
0.0498291
0.049765
0.0497858
0.049829
0.0497657
0.0499549
0.049071
0.0486315
0.0483063
0.0480851
0.0479446
0.0478603
0.0478118
0.0477849
0.0477703
0.0477625
0.0477583
0.0477561
0.0477548
0.0477541
0.0477537
0.0477534
0.0477532
0.0477531
0.047753
0.047753
0.0477529
0.0477529
0.0477529
0.0477529
0.0477529
0.0477529
0.0477529
0.0477529
0.0477529
0.0477529
0.0477529
0.0477529
0.0477529
0.0477529
0.0477529
0.0477529
0.0477529
0.0477526
0.0477408
0.0495188
0.049114
0.0488139
0.0486096
0.0484801
0.0484027
0.0483584
0.048334
0.0483209
0.0483142
0.0483107
0.048321
0.0487388
0.0496012
0.0496836
0.0495819
0.0495642
0.0495737
0.0495655
0.0495721
0.0498278
0.0493063
0.048979
0.0487342
0.0485665
0.0484594
0.0483948
0.0483574
0.0483364
0.048325
0.0483188
0.0483155
0.0483137
0.0483127
0.0483121
0.0483118
0.0483115
0.0483114
0.0483113
0.0483113
0.0483112
0.0483112
0.0483112
0.0483112
0.0483112
0.0483112
0.0483112
0.0483112
0.0483112
0.0483112
0.0483112
0.0483112
0.0483112
0.0483112
0.0483112
0.0483112
0.0483112
0.0483111
0.048311
0.048302
0.049625
0.0493096
0.0490757
0.0489167
0.0488161
0.0487559
0.0487216
0.0487026
0.0486923
0.0486866
0.0486831
0.0486893
0.0490131
0.0496603
0.049754
0.0496661
0.0496476
0.0496418
0.0496312
0.0496497
0.0498669
0.0494615
0.0492071
0.0490164
0.0488854
0.0488016
0.0487509
0.0487215
0.048705
0.048696
0.0486911
0.0486884
0.048687
0.0486862
0.0486857
0.0486855
0.0486853
0.0486852
0.0486851
0.0486851
0.048685
0.048685
0.048685
0.048685
0.048685
0.048685
0.048685
0.048685
0.048685
0.048685
0.048685
0.048685
0.048685
0.048685
0.048685
0.048685
0.048685
0.048685
0.0486848
0.0486778
0.0496996
0.0494469
0.0492597
0.0491325
0.049052
0.0490039
0.0489766
0.0489615
0.0489533
0.0489487
0.048946
0.0489518
0.0492121
0.049725
0.0498068
0.0497387
0.04972
0.0497134
0.0497059
0.0497185
0.0498942
0.0495693
0.0493655
0.0492128
0.049108
0.0490408
0.0490001
0.0489766
0.0489633
0.0489561
0.0489522
0.04895
0.0489489
0.0489483
0.0489479
0.0489477
0.0489476
0.0489475
0.0489474
0.0489474
0.0489474
0.0489474
0.0489473
0.0489473
0.0489473
0.0489473
0.0489473
0.0489473
0.0489473
0.0489473
0.0489473
0.0489473
0.0489473
0.0489473
0.0489473
0.0489473
0.0489473
0.0489473
0.0489472
0.0489415
0.049754
0.0495471
0.0493938
0.0492897
0.0492239
0.0491847
0.0491624
0.0491501
0.0491436
0.0491401
0.0491383
0.0491439
0.0493631
0.0497794
0.0498395
0.0497826
0.0497762
0.0497739
0.0497649
0.0497775
0.0499143
0.0496464
0.0494791
0.0493544
0.0492689
0.0492143
0.0491812
0.049162
0.0491513
0.0491454
0.0491423
0.0491406
0.0491396
0.0491391
0.0491389
0.0491387
0.0491386
0.0491385
0.0491385
0.0491385
0.0491385
0.0491384
0.0491384
0.0491384
0.0491384
0.0491384
0.0491384
0.0491384
0.0491384
0.0491384
0.0491384
0.0491384
0.0491384
0.0491384
0.0491384
0.0491384
0.0491384
0.0491384
0.0491383
0.0491337
0.0497949
0.0496224
0.0494946
0.0494078
0.0493531
0.0493204
0.0493019
0.0492918
0.0492864
0.0492838
0.0492829
0.0492895
0.0494745
0.0498251
0.0499206
0.0498675
0.0498436
0.0498745
0.0498634
0.0498446
0.0499545
0.0497035
0.0495633
0.0494596
0.049389
0.0493439
0.0493167
0.049301
0.0492923
0.0492875
0.0492849
0.0492836
0.0492828
0.0492824
0.0492822
0.0492821
0.049282
0.049282
0.0492819
0.0492819
0.0492819
0.0492819
0.0492819
0.0492819
0.0492819
0.0492819
0.0492819
0.0492819
0.0492819
0.0492819
0.0492819
0.0492819
0.0492819
0.0492819
0.0492819
0.0492819
0.0492819
0.0492819
0.0492818
0.0492779
0.0498264
0.0496803
0.0495722
0.0494988
0.0494525
0.0494249
0.0494093
0.0494008
0.0493962
0.0493939
0.0493926
0.0493957
0.0495491
0.0498466
0.049991
0.0499568
0.0499392
0.0499454
0.0499562
0.0499396
0.0499872
0.0497436
0.0496264
0.0495399
0.049481
0.0494435
0.0494209
0.0494079
0.0494007
0.0493968
0.0493947
0.0493936
0.049393
0.0493927
0.0493926
0.0493925
0.0493924
0.0493924
0.0493923
0.0493923
0.0493923
0.0493923
0.0493923
0.0493923
0.0493923
0.0493923
0.0493923
0.0493923
0.0493923
0.0493923
0.0493923
0.0493923
0.0493923
0.0493923
0.0493923
0.0493923
0.0493923
0.0493923
0.0493922
0.0493889
0.0498511
0.0497259
0.0496332
0.0495703
0.0495307
0.0495071
0.0494937
0.0494864
0.0494825
0.0494804
0.049479