/*--------------------------------*- C++ -*----------------------------------*\
  =========                 |
  \\      /  F ield         | OpenFOAM: The Open Source CFD Toolbox
   \\    /   O peration     | Website:  https://openfoam.org
    \\  /    A nd           | Version:  13
     \\/     M anipulation  |
\*---------------------------------------------------------------------------*/
FoamFile
{
    format      ascii;
    class       volScalarField;
    location    "6";
    object      p;
}
// * * * * * * * * * * * * * * * * * * * * * * * * * * * * * * * * * * * * * //

dimensions      [0 2 -2 0 0 0 0];

internalField   nonuniform List<scalar> 
54636
(
-6.83617e-13
-7.03828e-13
-7.19847e-13
-7.07281e-13
-6.92477e-13
-7.33487e-13
-7.06483e-13
-6.77344e-13
-7.21312e-13
-7.09332e-13
-6.72777e-13
-6.69965e-13
-6.31113e-13
-6.39095e-13
-6.35726e-13
-6.13661e-13
-6.25316e-13
-5.96272e-13
-5.96283e-13
-6.28769e-13
-6.45792e-13
-6.25139e-13
-6.27462e-13
-5.9825e-13
-5.94169e-13
-6.29926e-13
-6.37357e-13
-6.18199e-13
-6.56252e-13
-6.56084e-13
-6.81935e-13
-6.81557e-13
-6.80013e-13
-7.17704e-13
-6.91579e-13
-7.41012e-13
-7.49079e-13
-6.82526e-13
-6.83604e-13
-6.68091e-13
-6.12662e-13
-6.15474e-13
-6.13461e-13
-5.81357e-13
-5.75168e-13
-5.57498e-13
-5.313e-13
-4.8692e-13
-4.5518e-13
-4.16788e-13
-3.68568e-13
-3.26496e-13
-2.83586e-13
-2.27634e-13
-1.9798e-13
-1.644e-13
-1.17933e-13
-7.80986e-14
-6.43742e-14
-1.67321e-14
-6.76026e-13
-7.02307e-13
-7.14374e-13
-7.17663e-13
-6.9003e-13
-7.35064e-13
-7.2241e-13
-6.78175e-13
-7.30005e-13
-6.84781e-13
-6.7746e-13
-6.62947e-13
-6.42776e-13
-6.27731e-13
-6.25059e-13
-6.17452e-13
-6.25714e-13
-5.9867e-13
-5.96784e-13
-6.29577e-13
-6.43508e-13
-6.3326e-13
-6.224e-13
-6.13121e-13
-5.9961e-13
-6.32783e-13
-6.30216e-13
-6.18419e-13
-6.44329e-13
-6.60283e-13
-6.69838e-13
-6.77286e-13
-6.82377e-13
-7.15854e-13
-7.04114e-13
-7.38801e-13
-7.5103e-13
-6.74229e-13
-6.87268e-13
-6.64131e-13
-6.21728e-13
-6.18269e-13
-6.20615e-13
-5.8485e-13
-5.67382e-13
-5.61761e-13
-5.33041e-13
-4.88004e-13
-4.52487e-13
-4.1872e-13
-3.67544e-13
-3.246e-13
-2.77784e-13
-2.3748e-13
-2.03948e-13
-1.61935e-13
-1.09789e-13
-7.34633e-14
-6.53771e-14
-2.09991e-14
-6.74956e-13
-7.03106e-13
-7.19822e-13
-7.19944e-13
-6.9162e-13
-7.36845e-13
-7.2598e-13
-6.85594e-13
-7.2361e-13
-6.86555e-13
-6.65908e-13
-6.72975e-13
-6.53975e-13
-6.18486e-13
-6.22472e-13
-6.09722e-13
-6.30029e-13
-5.93522e-13
-5.83339e-13
-6.32935e-13
-6.69467e-13
-6.3913e-13
-6.23472e-13
-6.10361e-13
-6.1181e-13
-6.19759e-13
-6.31739e-13
-6.25234e-13
-6.22537e-13
-6.55026e-13
-6.63707e-13
-6.73399e-13
-6.91695e-13
-7.07305e-13
-7.21398e-13
-7.39378e-13
-7.2879e-13
-6.60575e-13
-6.89908e-13
-6.65841e-13
-6.30843e-13
-6.10974e-13
-6.15909e-13
-5.96003e-13
-5.67618e-13
-5.54622e-13
-5.28574e-13
-5.06218e-13
-4.52842e-13
-4.10541e-13
-3.66208e-13
-3.26483e-13
-2.74142e-13
-2.4432e-13
-2.00089e-13
-1.61832e-13
-1.15702e-13
-7.80141e-14
-5.86743e-14
-2.15501e-14
-6.81566e-13
-7.03207e-13
-7.17818e-13
-7.11325e-13
-7.10812e-13
-7.36439e-13
-7.18151e-13
-7.10286e-13
-7.24324e-13
-6.64592e-13
-6.6393e-13
-6.7396e-13
-6.6586e-13
-6.04829e-13
-6.25301e-13
-6.05044e-13
-6.35744e-13
-6.18153e-13
-5.78597e-13
-6.31836e-13
-6.72453e-13
-6.32936e-13
-6.23067e-13
-6.17803e-13
-6.18041e-13
-6.19053e-13
-6.23628e-13
-6.24341e-13
-6.11416e-13
-6.71826e-13
-6.4981e-13
-6.77061e-13
-7.09261e-13
-7.07791e-13
-7.25859e-13
-7.34321e-13
-7.10842e-13
-6.64903e-13
-6.89157e-13
-6.71313e-13
-6.26704e-13
-6.12219e-13
-6.10813e-13
-6.06796e-13
-5.7587e-13
-5.51255e-13
-5.20682e-13
-5.09515e-13
-4.60822e-13
-4.12621e-13
-3.76113e-13
-3.14933e-13
-2.67351e-13
-2.46754e-13
-1.98659e-13
-1.65572e-13
-1.17656e-13
-8.10935e-14
-5.56144e-14
-1.30361e-14
-6.50041e-13
-7.06674e-13
-7.1029e-13
-7.17665e-13
-7.31881e-13
-7.3417e-13
-7.0703e-13
-7.05515e-13
-7.35285e-13
-6.68842e-13
-6.50783e-13
-6.78631e-13
-6.77238e-13
-6.08017e-13
-6.14249e-13
-6.07723e-13
-6.3708e-13
-6.2196e-13
-5.80556e-13
-6.08513e-13
-6.48591e-13
-6.26824e-13
-6.25093e-13
-6.226e-13
-6.11723e-13
-6.12245e-13
-6.22602e-13
-6.21126e-13
-6.30193e-13
-6.61523e-13
-6.64262e-13
-6.83968e-13
-6.99523e-13
-7.08572e-13
-7.1759e-13
-7.21505e-13
-7.17074e-13
-6.61508e-13
-6.87472e-13
-6.61418e-13
-6.26843e-13
-6.05965e-13
-6.02843e-13
-6.07644e-13
-5.81891e-13
-5.55377e-13
-5.2557e-13
-5.09575e-13
-4.55071e-13
-3.96346e-13
-3.70341e-13
-3.3413e-13
-2.73663e-13
-2.31173e-13
-1.98883e-13
-1.71522e-13
-1.25341e-13
-8.02472e-14
-4.12001e-14
-8.43208e-15
-6.54649e-13
-7.12342e-13
-7.17306e-13
-7.18093e-13
-7.20187e-13
-7.39849e-13
-7.12642e-13
-7.04209e-13
-7.23658e-13
-6.716e-13
-6.62094e-13
-6.64593e-13
-6.71409e-13
-6.31383e-13
-6.07164e-13
-5.99684e-13
-6.27809e-13
-6.11373e-13
-5.62585e-13
-6.39957e-13
-6.17539e-13
-6.20816e-13
-6.30502e-13
-6.38691e-13
-6.27089e-13
-6.0453e-13
-6.35421e-13
-5.99804e-13
-6.31969e-13
-6.60686e-13
-6.64778e-13
-6.67072e-13
-7.18781e-13
-7.18462e-13
-7.07186e-13
-7.11331e-13
-6.82559e-13
-6.76508e-13
-6.97369e-13
-6.6062e-13
-6.26286e-13
-6.0368e-13
-6.07932e-13
-6.13249e-13
-5.79489e-13
-5.62051e-13
-5.16342e-13
-4.98913e-13
-4.51541e-13
-3.97533e-13
-3.71313e-13
-3.43111e-13
-2.74223e-13
-2.25959e-13
-2.11455e-13
-1.74699e-13
-1.20147e-13
-7.31528e-14
-4.60612e-14
-1.74896e-14
-6.48172e-13
-7.18e-13
-7.17557e-13
-7.28829e-13
-7.21314e-13
-7.09652e-13
-7.13993e-13
-7.16721e-13
-7.22812e-13
-6.73068e-13
-6.66847e-13
-6.68773e-13
-6.62743e-13
-6.76473e-13
-5.95926e-13
-6.23675e-13
-6.24864e-13
-6.16611e-13
-5.57475e-13
-6.35501e-13
-6.00929e-13
-6.30645e-13
-6.5114e-13
-6.25128e-13
-6.18277e-13
-6.1675e-13
-6.18236e-13
-6.00307e-13
-6.46455e-13
-6.65449e-13
-6.52728e-13
-6.82398e-13
-7.09107e-13
-7.2156e-13
-7.0874e-13
-7.06498e-13
-6.86894e-13
-6.82194e-13
-6.76686e-13
-6.54404e-13
-6.32388e-13
-6.06438e-13
-6.04724e-13
-6.17165e-13
-5.78799e-13
-5.67652e-13
-5.26078e-13
-5.06148e-13
-4.65151e-13
-3.84974e-13
-3.71902e-13
-3.44696e-13
-2.70706e-13
-2.12937e-13
-1.98203e-13
-1.8102e-13
-1.23936e-13
-8.13055e-14
-5.11677e-14
-2.23629e-14
-6.67745e-13
-7.04543e-13
-7.23522e-13
-7.33954e-13
-7.23801e-13
-7.17692e-13
-6.91233e-13
-7.03517e-13
-7.10652e-13
-6.77623e-13
-6.67977e-13
-6.65848e-13
-6.97101e-13
-6.70515e-13
-6.10707e-13
-6.04613e-13
-6.07773e-13
-5.65208e-13
-5.89247e-13
-5.61392e-13
-6.09318e-13
-6.30833e-13
-6.41792e-13
-6.1003e-13
-6.24497e-13
-6.29765e-13
-6.24676e-13
-6.0125e-13
-6.2925e-13
-6.71681e-13
-6.44798e-13
-6.70888e-13
-7.10543e-13
-7.26672e-13
-7.1312e-13
-6.96173e-13
-6.91166e-13
-6.87154e-13
-6.7587e-13
-6.64121e-13
-6.36947e-13
-6.03779e-13
-6.09731e-13
-6.02163e-13
-5.64043e-13
-5.73999e-13
-5.39263e-13
-5.04095e-13
-4.69055e-13
-3.92702e-13
-3.71058e-13
-3.45045e-13
-2.69529e-13
-1.98979e-13
-1.85533e-13
-1.8662e-13
-1.31165e-13
-8.11514e-14
-4.75044e-14
-2.1946e-14
-6.77174e-13
-6.90716e-13
-7.10971e-13
-7.51189e-13
-7.27336e-13
-7.22034e-13
-6.91863e-13
-6.96457e-13
-7.02111e-13
-6.80017e-13
-6.8496e-13
-6.50461e-13
-6.81634e-13
-6.77067e-13
-5.95057e-13
-6.35049e-13
-5.8699e-13
-5.94307e-13
-6.10807e-13
-5.76759e-13
-6.27911e-13
-6.25707e-13
-6.33273e-13
-6.03467e-13
-6.24605e-13
-6.22167e-13
-6.17425e-13
-6.25998e-13
-6.34712e-13
-6.64715e-13
-6.49538e-13
-6.82694e-13
-7.04958e-13
-7.08001e-13
-7.11026e-13
-7.01389e-13
-6.93736e-13
-6.91839e-13
-6.8951e-13
-6.54841e-13
-6.18106e-13
-6.03931e-13
-6.0734e-13
-5.92386e-13
-5.72216e-13
-5.70428e-13
-5.33611e-13
-5.11461e-13
-4.74146e-13
-3.94974e-13
-3.57871e-13
-3.37627e-13
-2.72311e-13
-1.97696e-13
-1.8852e-13
-1.86378e-13
-1.37506e-13
-9.0487e-14
-4.27449e-14
-1.03779e-14
-6.69805e-13
-6.94201e-13
-7.11341e-13
-7.5613e-13
-7.38938e-13
-6.99749e-13
-6.91619e-13
-6.94133e-13
-7.03479e-13
-6.63102e-13
-7.01008e-13
-6.63692e-13
-6.56046e-13
-6.77924e-13
-6.19759e-13
-6.17221e-13
-5.52553e-13
-6.01631e-13
-5.96388e-13
-6.31239e-13
-6.25715e-13
-6.34287e-13
-6.29304e-13
-6.17794e-13
-6.1851e-13
-6.17871e-13
-5.93077e-13
-6.35512e-13
-6.36252e-13
-6.74081e-13
-6.54473e-13
-6.68112e-13
-7.14285e-13
-7.16343e-13
-6.87062e-13
-7.01088e-13
-6.85193e-13
-7.03914e-13
-6.83316e-13
-6.64605e-13
-6.0952e-13
-5.89157e-13
-5.98259e-13
-5.93767e-13
-5.90853e-13
-5.71281e-13
-5.26448e-13
-5.0552e-13
-4.65789e-13
-3.91226e-13
-3.5554e-13
-3.24691e-13
-2.82312e-13
-2.14491e-13
-1.88321e-13
-1.65412e-13
-1.26624e-13
-9.77786e-14
-4.58361e-14
-1.23254e-14
-6.85366e-13
-6.91469e-13
-7.22336e-13
-7.53252e-13
-7.62332e-13
-6.80429e-13
-6.8657e-13
-6.87519e-13
-6.96256e-13
-6.63069e-13
-6.88824e-13
-6.81149e-13
-6.75003e-13
-6.50106e-13
-6.27036e-13
-6.2112e-13
-5.447e-13
-6.29671e-13
-6.09955e-13
-6.16982e-13
-6.30789e-13
-6.40511e-13
-6.34794e-13
-6.11572e-13
-6.12467e-13
-6.21018e-13
-5.92797e-13
-6.22987e-13
-6.55331e-13
-6.85603e-13
-6.58864e-13
-6.73569e-13
-7.11292e-13
-6.90327e-13
-6.80307e-13
-7.04665e-13
-7.01456e-13
-7.18509e-13
-6.82092e-13
-6.42033e-13
-6.13065e-13
-5.98755e-13
-6.02932e-13
-6.05483e-13
-5.84864e-13
-5.67162e-13
-5.44065e-13
-5.07087e-13
-4.44253e-13
-3.8511e-13
-3.66489e-13
-3.26263e-13
-2.77638e-13
-2.16827e-13
-1.93042e-13
-1.51088e-13
-1.19578e-13
-9.8712e-14
-4.08361e-14
-7.40766e-15
-6.84663e-13
-7.06103e-13
-7.40409e-13
-7.38104e-13
-7.62335e-13
-6.891e-13
-6.95875e-13
-6.77474e-13
-6.88679e-13
-6.7087e-13
-6.86869e-13
-6.88007e-13
-6.31038e-13
-6.36658e-13
-5.99819e-13
-6.16221e-13
-5.70351e-13
-6.87576e-13
-5.56227e-13
-6.08741e-13
-6.15385e-13
-6.54282e-13
-6.46757e-13
-5.86627e-13
-6.20776e-13
-6.1535e-13
-5.9665e-13
-6.28901e-13
-6.63164e-13
-6.85e-13
-6.62852e-13
-6.83261e-13
-7.06538e-13
-6.81572e-13
-6.78507e-13
-6.95592e-13
-7.20973e-13
-7.09299e-13
-6.58625e-13
-6.36481e-13
-6.33892e-13
-6.26666e-13
-6.02579e-13
-6.01529e-13
-5.7676e-13
-5.58444e-13
-5.37664e-13
-5.18021e-13
-4.51624e-13
-3.89449e-13
-3.55687e-13
-3.30812e-13
-2.72209e-13
-2.21735e-13
-1.94607e-13
-1.45975e-13
-1.38293e-13
-1.0884e-13
-2.70295e-14
-8.2373e-15
-6.87734e-13
-7.04967e-13
-7.42341e-13
-7.38437e-13
-7.59243e-13
-6.98968e-13
-6.97617e-13
-6.73451e-13
-6.77262e-13
-6.76359e-13
-6.97816e-13
-6.8725e-13
-6.20171e-13
-6.3447e-13
-6.03937e-13
-6.34025e-13
-5.97442e-13
-6.79408e-13
-5.94624e-13
-5.64582e-13
-6.3586e-13
-6.36999e-13
-6.3334e-13
-5.93828e-13
-6.17884e-13
-6.13866e-13
-6.15931e-13
-6.13296e-13
-6.5556e-13
-6.7471e-13
-6.66875e-13
-6.95077e-13
-7.14443e-13
-6.89757e-13
-6.84199e-13
-6.88711e-13
-7.18423e-13
-6.84658e-13
-6.59503e-13
-6.34031e-13
-6.34517e-13
-6.30472e-13
-6.03682e-13
-5.99631e-13
-5.94437e-13
-5.80699e-13
-5.37786e-13
-4.91919e-13
-4.4489e-13
-3.95757e-13
-3.59922e-13
-3.33882e-13
-2.55183e-13
-2.05139e-13
-2.04383e-13
-1.61854e-13
-1.4891e-13
-9.02907e-14
-2.79487e-14
-8.83589e-15
-7.06461e-13
-6.99348e-13
-7.37056e-13
-7.29277e-13
-7.42242e-13
-7.1255e-13
-6.99148e-13
-6.82676e-13
-6.67711e-13
-6.73184e-13
-6.84596e-13
-6.7397e-13
-6.36054e-13
-6.42662e-13
-6.6989e-13
-6.20736e-13
-6.14027e-13
-6.73819e-13
-6.0944e-13
-6.42577e-13
-6.14795e-13
-6.22771e-13
-6.34025e-13
-5.86843e-13
-5.99259e-13
-6.11164e-13
-6.32271e-13
-6.31546e-13
-6.43767e-13
-6.71883e-13
-6.79116e-13
-6.89713e-13
-6.98206e-13
-6.89689e-13
-7.05247e-13
-7.04328e-13
-7.11904e-13
-6.80809e-13
-6.59528e-13
-6.36934e-13
-6.29537e-13
-6.04253e-13
-6.07998e-13
-6.09849e-13
-5.97245e-13
-5.63112e-13
-5.34987e-13
-4.98949e-13
-4.55189e-13
-3.95107e-13
-3.59189e-13
-3.23362e-13
-2.59163e-13
-2.14149e-13
-2.05821e-13
-1.63991e-13
-1.40073e-13
-7.80644e-14
-2.71698e-14
-1.27034e-15
-7.13115e-13
-7.00912e-13
-7.36061e-13
-7.32401e-13
-7.37814e-13
-7.02403e-13
-7.14607e-13
-6.80398e-13
-6.52247e-13
-6.63571e-13
-6.86827e-13
-7.01706e-13
-6.21553e-13
-6.34064e-13
-6.49724e-13
-6.08374e-13
-6.286e-13
-6.76771e-13
-6.39911e-13
-6.30817e-13
-6.01442e-13
-6.36049e-13
-6.39328e-13
-5.96192e-13
-6.0562e-13
-6.13251e-13
-6.17455e-13
-6.40885e-13
-6.41626e-13
-6.72099e-13
-6.67824e-13
-6.93233e-13
-6.90642e-13
-6.88529e-13
-7.18257e-13
-7.25115e-13
-7.02411e-13
-6.76524e-13
-6.3984e-13
-6.42577e-13
-6.26852e-13
-6.17462e-13
-6.16136e-13
-5.98931e-13
-5.97317e-13
-5.49674e-13
-5.30933e-13
-4.91639e-13
-4.63085e-13
-4.1103e-13
-3.66535e-13
-3.19978e-13
-2.52556e-13
-2.04987e-13
-2.02297e-13
-1.66493e-13
-1.45798e-13
-7.87864e-14
-2.33527e-14
3.97262e-15
-7.14684e-13
-7.15929e-13
-7.19099e-13
-7.25951e-13
-7.17766e-13
-7.17755e-13
-7.18398e-13
-6.78101e-13
-6.37164e-13
-6.66728e-13
-6.70633e-13
-7.0291e-13
-6.19581e-13
-6.55555e-13
-6.34292e-13
-6.08984e-13
-6.2981e-13
-6.78488e-13
-6.3994e-13
-6.28126e-13
-5.99726e-13
-6.52367e-13
-6.21796e-13
-5.9044e-13
-6.15931e-13
-6.23294e-13
-6.22577e-13
-6.39549e-13
-6.51596e-13
-6.70072e-13
-6.59505e-13
-6.84525e-13
-6.98142e-13
-6.73509e-13
-7.34785e-13
-7.3631e-13
-7.00344e-13
-6.62471e-13
-6.3741e-13
-6.45224e-13
-6.28928e-13
-6.27079e-13
-6.11274e-13
-5.9405e-13
-5.97684e-13
-5.56999e-13
-5.15284e-13
-4.90379e-13
-4.48372e-13
-4.07494e-13
-3.70622e-13
-3.28891e-13
-2.70136e-13
-2.14819e-13
-1.92368e-13
-1.50112e-13
-1.31614e-13
-7.62028e-14
-2.13888e-14
-8.44997e-16
-7.21591e-13
-7.17723e-13
-6.92162e-13
-7.30873e-13
-7.18081e-13
-7.17404e-13
-7.26803e-13
-6.70049e-13
-6.46994e-13
-6.49542e-13
-6.86151e-13
-7.04811e-13
-6.27292e-13
-6.546e-13
-6.28594e-13
-6.08998e-13
-6.27084e-13
-6.64351e-13
-6.53821e-13
-6.27131e-13
-6.07207e-13
-6.47215e-13
-6.11486e-13
-5.93211e-13
-6.34358e-13
-6.2762e-13
-6.21184e-13
-6.33095e-13
-6.5273e-13
-6.8446e-13
-6.55044e-13
-6.98701e-13
-6.83455e-13
-6.71188e-13
-7.48484e-13
-7.3195e-13
-6.77584e-13
-6.44672e-13
-6.40791e-13
-6.5389e-13
-6.30673e-13
-6.31558e-13
-6.08008e-13
-5.9416e-13
-5.93835e-13
-5.44761e-13
-5.04216e-13
-4.91289e-13
-4.69617e-13
-4.02551e-13
-3.75764e-13
-3.38914e-13
-2.78574e-13
-2.19277e-13
-1.78421e-13
-1.47258e-13
-1.26286e-13
-7.34333e-14
-1.2362e-14
5.04276e-15
-7.09271e-13
-7.27228e-13
-7.032e-13
-7.31493e-13
-7.25365e-13
-7.22351e-13
-7.31497e-13
-6.52337e-13
-6.33321e-13
-6.56882e-13
-6.85664e-13
-6.95534e-13
-6.67236e-13
-6.22346e-13
-6.39935e-13
-6.09453e-13
-6.10386e-13
-6.81654e-13
-6.34727e-13
-6.37652e-13
-6.0129e-13
-6.4139e-13
-6.12636e-13
-5.92604e-13
-6.42812e-13
-6.38708e-13
-6.04903e-13
-6.1468e-13
-6.55496e-13
-6.87938e-13
-6.66295e-13
-7.0711e-13
-6.90607e-13
-6.547e-13
-7.4546e-13
-7.6191e-13
-6.6344e-13
-6.45498e-13
-6.35487e-13
-6.43293e-13
-6.41238e-13
-6.45624e-13
-5.96678e-13
-5.95457e-13
-5.8634e-13
-5.35077e-13
-5.03456e-13
-5.0146e-13
-4.68098e-13
-4.03311e-13
-3.82173e-13
-3.36167e-13
-2.76896e-13
-2.38302e-13
-1.7987e-13
-1.31322e-13
-1.2152e-13
-8.46289e-14
-1.50817e-14
1.15309e-14
-6.81721e-13
-7.06509e-13
-7.2139e-13
-7.02431e-13
-6.88918e-13
-7.25267e-13
-7.06361e-13
-7.00462e-13
-7.18642e-13
-7.00869e-13
-6.70973e-13
-6.62059e-13
-6.43047e-13
-6.30771e-13
-6.27724e-13
-6.25234e-13
-6.24556e-13
-5.93571e-13
-6.05759e-13
-6.23389e-13
-6.54321e-13
-6.14045e-13
-6.26629e-13
-6.02151e-13
-6.11688e-13
-6.31404e-13
-6.26733e-13
-6.14816e-13
-6.49566e-13
-6.58579e-13
-6.80186e-13
-6.81587e-13
-6.76935e-13
-7.24899e-13
-6.98284e-13
-7.16514e-13
-7.38681e-13
-6.92152e-13
-6.84845e-13
-6.66192e-13
-6.16175e-13
-6.26535e-13
-6.19851e-13
-5.85391e-13
-5.75173e-13
-5.56029e-13
-5.24693e-13
-4.89847e-13
-4.57539e-13
-4.15233e-13
-3.62121e-13
-3.24953e-13
-2.87718e-13
-2.33762e-13
-1.94048e-13
-1.59169e-13
-1.24614e-13
-8.27608e-14
-6.01608e-14
-1.83747e-14
-6.87394e-13
-6.9925e-13
-7.13208e-13
-7.11243e-13
-6.9293e-13
-7.2599e-13
-7.15075e-13
-6.88848e-13
-7.24852e-13
-6.87851e-13
-6.76174e-13
-6.56595e-13
-6.54274e-13
-6.20901e-13
-6.23792e-13
-6.22873e-13
-6.24735e-13
-5.9524e-13
-5.97662e-13
-6.30916e-13
-6.59008e-13
-6.10596e-13
-6.28549e-13
-6.04776e-13
-6.08853e-13
-6.39041e-13
-6.23196e-13
-6.2544e-13
-6.34212e-13
-6.55733e-13
-6.70285e-13
-6.77512e-13
-6.83672e-13
-7.21376e-13
-7.03389e-13
-7.23904e-13
-7.35228e-13
-6.92358e-13
-6.85396e-13
-6.66376e-13
-6.21834e-13
-6.19669e-13
-6.24157e-13
-5.92213e-13
-5.67752e-13
-5.60347e-13
-5.29499e-13
-4.89763e-13
-4.52506e-13
-4.1492e-13
-3.67973e-13
-3.24129e-13
-2.80399e-13
-2.37895e-13
-2.01906e-13
-1.60166e-13
-1.18694e-13
-7.66865e-14
-6.23609e-14
-2.12691e-14
-6.89183e-13
-7.01628e-13
-7.12172e-13
-7.176e-13
-6.88918e-13
-7.35858e-13
-7.26225e-13
-6.88155e-13
-7.15264e-13
-6.90667e-13
-6.65994e-13
-6.668e-13
-6.66946e-13
-6.17252e-13
-6.21164e-13
-6.17186e-13
-6.22019e-13
-5.94944e-13
-5.91794e-13
-6.29594e-13
-6.63524e-13
-6.23399e-13
-6.31421e-13
-6.15443e-13
-6.06085e-13
-6.30952e-13
-6.28204e-13
-6.28882e-13
-6.26984e-13
-6.37778e-13
-6.67994e-13
-6.76137e-13
-6.96302e-13
-7.0013e-13
-7.2292e-13
-7.31379e-13
-7.29698e-13
-6.72281e-13
-6.92041e-13
-6.70249e-13
-6.23428e-13
-6.10121e-13
-6.21268e-13
-5.92696e-13
-5.75427e-13
-5.54814e-13
-5.28914e-13
-5.04194e-13
-4.51498e-13
-4.0527e-13
-3.63666e-13
-3.20859e-13
-2.77955e-13
-2.48674e-13
-1.94778e-13
-1.62814e-13
-1.19261e-13
-7.7005e-14
-5.81019e-14
-2.24962e-14
-6.8276e-13
-6.99588e-13
-7.18388e-13
-7.10838e-13
-7.02593e-13
-7.40777e-13
-7.19838e-13
-7.01852e-13
-7.19945e-13
-6.69296e-13
-6.73976e-13
-6.79104e-13
-6.68611e-13
-6.05983e-13
-6.18159e-13
-6.0856e-13
-6.31346e-13
-6.17076e-13
-5.73362e-13
-6.41975e-13
-6.54089e-13
-6.26024e-13
-6.40764e-13
-6.16243e-13
-6.05608e-13
-6.16695e-13
-6.35014e-13
-6.24991e-13
-6.22055e-13
-6.52502e-13
-6.57519e-13
-6.67195e-13
-7.12316e-13
-7.06657e-13
-7.26908e-13
-7.27489e-13
-7.15859e-13
-6.73176e-13
-6.86179e-13
-6.63917e-13
-6.29933e-13
-6.0929e-13
-6.15062e-13
-6.08275e-13
-5.84379e-13
-5.5016e-13
-5.17238e-13
-4.98175e-13
-4.58067e-13
-4.09241e-13
-3.64436e-13
-3.19753e-13
-2.70215e-13
-2.52968e-13
-1.94664e-13
-1.62267e-13
-1.2233e-13
-7.58214e-14
-5.0126e-14
-1.80414e-14
-6.72035e-13
-6.95939e-13
-7.18502e-13
-7.17147e-13
-7.2973e-13
-7.27922e-13
-7.18873e-13
-7.04925e-13
-7.24941e-13
-6.59926e-13
-6.60528e-13
-6.84415e-13
-6.65506e-13
-6.17592e-13
-6.05338e-13
-6.07057e-13
-6.34624e-13
-6.1916e-13
-5.89962e-13
-6.16649e-13
-6.58696e-13
-6.25514e-13
-6.37287e-13
-6.19192e-13
-6.0935e-13
-6.11261e-13
-6.31111e-13
-6.26324e-13
-6.35826e-13
-6.46997e-13
-6.56211e-13
-6.70972e-13
-7.05372e-13
-7.09198e-13
-7.16495e-13
-7.27043e-13
-7.11886e-13
-6.72756e-13
-6.82947e-13
-6.60643e-13
-6.31986e-13
-6.04732e-13
-6.06453e-13
-6.12907e-13
-5.87066e-13
-5.60196e-13
-5.20497e-13
-4.928e-13
-4.50164e-13
-4.01694e-13
-3.72995e-13
-3.28158e-13
-2.7242e-13
-2.35923e-13
-1.90041e-13
-1.73965e-13
-1.29911e-13
-6.87887e-14
-4.21208e-14
-1.67544e-14
-6.58446e-13
-7.07123e-13
-7.27687e-13
-7.15003e-13
-7.25265e-13
-7.18674e-13
-7.15277e-13
-7.03971e-13
-7.26628e-13
-6.72014e-13
-6.65464e-13
-6.69733e-13
-6.78906e-13
-6.38622e-13
-5.77843e-13
-6.1659e-13
-6.33713e-13
-6.43602e-13
-5.71253e-13
-6.33902e-13
-6.33523e-13
-6.28723e-13
-6.23344e-13
-6.2944e-13
-6.22289e-13
-6.0852e-13
-6.39281e-13
-6.15483e-13
-6.40028e-13
-6.48278e-13
-6.56812e-13
-6.691e-13
-7.06524e-13
-7.17395e-13
-7.17241e-13
-7.10555e-13
-6.94642e-13
-6.93229e-13
-6.74695e-13
-6.59759e-13
-6.33387e-13
-6.01948e-13
-6.00042e-13
-6.14539e-13
-5.83542e-13
-5.63624e-13
-5.20566e-13
-4.92234e-13
-4.50929e-13
-3.99871e-13
-3.74739e-13
-3.35703e-13
-2.77645e-13
-2.23818e-13
-1.95101e-13
-1.78235e-13
-1.28465e-13
-7.385e-14
-4.50089e-14
-1.14682e-14
-6.48093e-13
-7.18551e-13
-7.25869e-13
-7.3125e-13
-7.15696e-13
-7.14291e-13
-7.08381e-13
-7.03169e-13
-7.30105e-13
-6.70604e-13
-6.65784e-13
-6.69116e-13
-6.56151e-13
-6.784e-13
-6.09607e-13
-6.13224e-13
-6.15849e-13
-6.25479e-13
-5.8148e-13
-6.24168e-13
-6.07436e-13
-6.36448e-13
-6.30661e-13
-6.25267e-13
-6.16821e-13
-6.23628e-13
-6.32652e-13
-6.09698e-13
-6.39844e-13
-6.51796e-13
-6.59395e-13
-6.71385e-13
-6.97924e-13
-7.2737e-13
-7.12677e-13
-7.05487e-13
-7.0314e-13
-6.92062e-13
-6.67435e-13
-6.47578e-13
-6.41085e-13
-6.00256e-13
-5.92048e-13
-6.18516e-13
-5.84547e-13
-5.67823e-13
-5.27436e-13
-4.95738e-13
-4.64018e-13
-4.02416e-13
-3.70807e-13
-3.4036e-13
-2.75168e-13
-2.14497e-13
-1.91317e-13
-1.8369e-13
-1.30143e-13
-7.77707e-14
-4.2638e-14
-1.36469e-14
-6.61979e-13
-7.14783e-13
-7.19951e-13
-7.34403e-13
-7.21426e-13
-7.07308e-13
-7.00132e-13
-7.02207e-13
-7.16374e-13
-6.74225e-13
-6.76862e-13
-6.62869e-13
-6.64822e-13
-6.63672e-13
-5.8451e-13
-6.27079e-13
-5.91835e-13
-6.08549e-13
-6.20568e-13
-5.85681e-13
-6.25067e-13
-6.29582e-13
-6.28465e-13
-6.20257e-13
-6.14314e-13
-6.23751e-13
-6.29783e-13
-6.1034e-13
-6.34e-13
-6.62207e-13
-6.53142e-13
-6.64962e-13
-7.05115e-13
-7.26527e-13
-7.01838e-13
-7.07376e-13
-7.03318e-13
-6.91922e-13
-6.77313e-13
-6.44014e-13
-6.3344e-13
-6.0278e-13
-6.00873e-13
-6.12872e-13
-5.76099e-13
-5.73561e-13
-5.37683e-13
-5.02292e-13
-4.69152e-13
-4.02203e-13
-3.65356e-13
-3.36092e-13
-2.73241e-13
-2.04342e-13
-1.85047e-13
-1.8162e-13
-1.35553e-13
-8.86643e-14
-4.48733e-14
-1.60253e-14
-6.78528e-13
-6.93214e-13
-7.08312e-13
-7.52408e-13
-7.40092e-13
-7.01638e-13
-6.96847e-13
-6.91209e-13
-6.98316e-13
-6.87219e-13
-6.86468e-13
-6.5379e-13
-6.77241e-13
-6.75494e-13
-6.00973e-13
-6.32921e-13
-6.00636e-13
-6.08653e-13
-5.96652e-13
-5.7638e-13
-6.43975e-13
-6.2976e-13
-6.26153e-13
-6.12432e-13
-6.14699e-13
-6.33713e-13
-6.13594e-13
-6.21506e-13
-6.37662e-13
-6.5492e-13
-6.58945e-13
-6.69606e-13
-7.09166e-13
-7.07441e-13
-7.10802e-13
-7.04525e-13
-7.00274e-13
-6.98526e-13
-6.65379e-13
-6.51115e-13
-6.23825e-13
-6.03115e-13
-5.99513e-13
-6.0557e-13
-5.72185e-13
-5.69282e-13
-5.33751e-13
-5.07067e-13
-4.67735e-13
-3.9853e-13
-3.60635e-13
-3.33122e-13
-2.77645e-13
-2.03709e-13
-1.82267e-13
-1.7963e-13
-1.36094e-13
-9.83374e-14
-4.23762e-14
-1.41607e-14
-6.76854e-13
-6.99967e-13
-7.10932e-13
-7.40788e-13
-7.46603e-13
-7.0871e-13
-6.82206e-13
-6.82056e-13
-7.05555e-13
-6.84672e-13
-6.84067e-13
-6.64331e-13
-6.71009e-13
-6.68497e-13
-6.14971e-13
-6.06634e-13
-5.59607e-13
-6.27939e-13
-6.0906e-13
-6.25064e-13
-6.06268e-13
-6.33555e-13
-6.35238e-13
-6.18957e-13
-6.15808e-13
-6.29277e-13
-5.92766e-13
-6.35641e-13
-6.3678e-13
-6.61571e-13
-6.61514e-13
-6.72592e-13
-6.92609e-13
-7.17501e-13
-7.0025e-13
-7.06373e-13
-6.93056e-13
-6.97457e-13
-6.69466e-13
-6.63366e-13
-6.14747e-13
-5.97165e-13
-5.86563e-13
-6.18105e-13
-5.81498e-13
-5.7187e-13
-5.29529e-13
-5.02657e-13
-4.59016e-13
-3.93732e-13
-3.57337e-13
-3.24308e-13
-2.8371e-13
-2.12321e-13
-1.83682e-13
-1.68812e-13
-1.32294e-13
-1.00928e-13
-3.65743e-14
-1.38156e-14
-6.89467e-13
-6.96665e-13
-7.13061e-13
-7.39805e-13
-7.55446e-13
-6.98758e-13
-6.82698e-13
-6.75078e-13
-7.00364e-13
-6.8172e-13
-6.76492e-13
-6.78752e-13
-6.64407e-13
-6.32452e-13
-6.70072e-13
-6.17058e-13
-5.63013e-13
-6.44634e-13
-6.00177e-13
-6.03156e-13
-6.25492e-13
-6.35037e-13
-6.42539e-13
-6.15304e-13
-6.13798e-13
-6.20708e-13
-5.91711e-13
-6.27897e-13
-6.57873e-13
-6.75366e-13
-6.59179e-13
-6.72212e-13
-7.02179e-13
-7.04905e-13
-6.84044e-13
-6.97933e-13
-7.17146e-13
-6.91445e-13
-6.78037e-13
-6.47077e-13
-6.04434e-13
-6.08749e-13
-5.98105e-13
-6.09891e-13
-5.84936e-13
-5.76123e-13
-5.39663e-13
-5.04345e-13
-4.41469e-13
-3.95313e-13
-3.69646e-13
-3.2073e-13
-2.73032e-13
-2.07204e-13
-1.89531e-13
-1.61242e-13
-1.29929e-13
-1.02945e-13
-3.15945e-14
-8.66321e-15
-6.98084e-13
-6.96095e-13
-7.32721e-13
-7.35699e-13
-7.52578e-13
-6.96254e-13
-7.01877e-13
-6.67971e-13
-6.89475e-13
-6.72977e-13
-6.83242e-13
-6.83317e-13
-6.46255e-13
-6.31758e-13
-6.42338e-13
-6.29346e-13
-5.95903e-13
-6.63133e-13
-5.65673e-13
-5.88322e-13
-5.85492e-13
-6.3981e-13
-6.4319e-13
-6.02022e-13
-6.20801e-13
-6.19539e-13
-5.95316e-13
-6.21163e-13
-6.65717e-13
-6.74944e-13
-6.62702e-13
-6.85575e-13
-7.03774e-13
-6.86911e-13
-6.87614e-13
-6.92503e-13
-7.22541e-13
-7.01565e-13
-6.63009e-13
-6.41935e-13
-6.15896e-13
-6.21639e-13
-6.06661e-13
-5.95986e-13
-5.88488e-13
-5.78245e-13
-5.35966e-13
-5.02067e-13
-4.47813e-13
-4.03613e-13
-3.62973e-13
-3.20625e-13
-2.64874e-13
-2.17763e-13
-1.84616e-13
-1.56301e-13
-1.34629e-13
-1.05196e-13
-3.50599e-14
-1.88307e-14
-6.95932e-13
-7.03145e-13
-7.34477e-13
-7.32376e-13
-7.5297e-13
-6.98139e-13
-7.06372e-13
-6.72315e-13
-6.7496e-13
-6.78809e-13
-6.8688e-13
-6.79748e-13
-6.26943e-13
-6.06987e-13
-5.81166e-13
-6.29587e-13
-5.9203e-13
-6.98677e-13
-6.02157e-13
-6.17104e-13
-6.34036e-13
-6.30324e-13
-6.40015e-13
-5.89201e-13
-6.22754e-13
-6.19315e-13
-6.06807e-13
-6.17914e-13
-6.48829e-13
-6.70163e-13
-6.75338e-13
-6.81718e-13
-7.07424e-13
-6.87701e-13
-6.94328e-13
-7.0236e-13
-7.16118e-13
-6.89864e-13
-6.62205e-13
-6.36142e-13
-6.17669e-13
-6.21552e-13
-6.07212e-13
-6.0177e-13
-5.95045e-13
-5.7658e-13
-5.30845e-13
-4.94304e-13
-4.51005e-13
-3.9699e-13
-3.53069e-13
-3.27085e-13
-2.58385e-13
-2.14846e-13
-1.92806e-13
-1.62434e-13
-1.41804e-13
-8.93157e-14
-3.60474e-14
-1.57513e-14
-7.16143e-13
-6.93567e-13
-7.3029e-13
-7.34991e-13
-7.40755e-13
-7.03576e-13
-6.95036e-13
-6.86527e-13
-6.61681e-13
-6.72967e-13
-6.90829e-13
-6.66736e-13
-6.41488e-13
-6.22518e-13
-6.69579e-13
-6.28027e-13
-6.11599e-13
-6.48169e-13
-6.15383e-13
-6.3763e-13
-6.33649e-13
-6.31526e-13
-6.29628e-13
-5.90142e-13
-6.09791e-13
-6.18685e-13
-6.24555e-13
-6.27483e-13
-6.39399e-13
-6.64173e-13
-6.81324e-13
-6.79239e-13
-7.06396e-13
-6.98087e-13
-7.03836e-13
-7.07328e-13
-7.17023e-13
-6.8303e-13
-6.55401e-13
-6.33761e-13
-6.18736e-13
-6.22042e-13
-6.07662e-13
-5.9904e-13
-5.99102e-13
-5.63842e-13
-5.293e-13
-4.92989e-13
-4.57009e-13
-4.00117e-13
-3.54882e-13
-3.20823e-13
-2.59377e-13
-2.13693e-13
-1.99853e-13
-1.66751e-13
-1.33311e-13
-8.28923e-14
-3.07523e-14
-1.00068e-14
-7.13705e-13
-6.99177e-13
-7.25137e-13
-7.40614e-13
-7.33727e-13
-7.02845e-13
-7.04816e-13
-6.79008e-13
-6.57539e-13
-6.65293e-13
-6.93756e-13
-6.73388e-13
-6.29891e-13
-6.3891e-13
-6.60156e-13
-6.18624e-13
-6.31444e-13
-6.44748e-13
-6.2976e-13
-6.39734e-13
-6.04112e-13
-6.39288e-13
-6.38306e-13
-5.9718e-13
-6.09388e-13
-6.11653e-13
-6.22685e-13
-6.26036e-13
-6.60017e-13
-6.65434e-13
-6.65157e-13
-6.75784e-13
-7.0496e-13
-6.92269e-13
-7.16045e-13
-7.21079e-13
-7.00598e-13
-6.79056e-13
-6.46604e-13
-6.43117e-13
-6.32289e-13
-6.21094e-13
-6.12163e-13
-5.96247e-13
-6.01251e-13
-5.51197e-13
-5.22284e-13
-4.87996e-13
-4.56884e-13
-4.1062e-13
-3.6389e-13
-3.25075e-13
-2.60443e-13
-2.05373e-13
-1.90318e-13
-1.69662e-13
-1.48014e-13
-8.42386e-14
-2.27979e-14
1.27367e-15
-7.27344e-13
-7.10424e-13
-7.03996e-13
-7.36612e-13
-7.21921e-13
-7.06937e-13
-7.17041e-13
-6.69616e-13
-6.53225e-13
-6.53328e-13
-6.74276e-13
-6.9214e-13
-6.29935e-13
-6.5994e-13
-6.45686e-13
-6.12919e-13
-6.26361e-13
-6.54567e-13
-6.36227e-13
-6.37676e-13
-6.09022e-13
-6.44031e-13
-6.31767e-13
-5.96189e-13
-6.19702e-13
-6.16014e-13
-6.21974e-13
-6.2484e-13
-6.50594e-13
-6.67546e-13
-6.68275e-13
-6.91597e-13
-6.89791e-13
-6.90469e-13
-7.24704e-13
-7.26328e-13
-7.02832e-13
-6.68984e-13
-6.44714e-13
-6.43638e-13
-6.2811e-13
-6.24674e-13
-6.13218e-13
-5.91296e-13
-5.96769e-13
-5.52297e-13
-5.06016e-13
-4.90281e-13
-4.56897e-13
-4.12586e-13
-3.73766e-13
-3.27135e-13
-2.67641e-13
-2.15105e-13
-1.88653e-13
-1.54145e-13
-1.3011e-13
-7.9349e-14
-2.652e-14
-2.78448e-15
-7.23524e-13
-7.16712e-13
-6.96863e-13
-7.29579e-13
-7.20416e-13
-7.21871e-13
-7.24908e-13
-6.62842e-13
-6.51866e-13
-6.43534e-13
-6.86543e-13
-6.93839e-13
-6.46654e-13
-6.39841e-13
-6.40327e-13
-6.08991e-13
-6.21648e-13
-6.69324e-13
-6.38133e-13
-6.35074e-13
-6.12655e-13
-6.4228e-13
-6.15885e-13
-5.93353e-13
-6.35929e-13
-6.27888e-13
-6.16116e-13
-6.12472e-13
-6.55152e-13
-6.81438e-13
-6.65692e-13
-7.04422e-13
-6.77165e-13
-6.92901e-13
-7.39648e-13
-7.31067e-13
-6.8055e-13
-6.53185e-13
-6.45091e-13
-6.58637e-13
-6.3132e-13
-6.28383e-13
-6.06329e-13
-5.91276e-13
-5.89317e-13
-5.44613e-13
-4.96549e-13
-4.86789e-13
-4.61576e-13
-4.18114e-13
-3.80954e-13
-3.39313e-13
-2.7085e-13
-2.2113e-13
-1.8151e-13
-1.43333e-13
-1.22657e-13
-8.18083e-14
-1.85034e-14
-1.05934e-15
-7.19447e-13
-7.25311e-13
-7.01291e-13
-7.34091e-13
-7.21113e-13
-7.11829e-13
-7.2559e-13
-6.61724e-13
-6.3361e-13
-6.49742e-13
-6.88022e-13
-6.87743e-13
-6.58395e-13
-6.394e-13
-6.32071e-13
-6.06893e-13
-6.17852e-13
-6.80775e-13
-6.23829e-13
-6.3849e-13
-6.14901e-13
-6.33561e-13
-6.09746e-13
-5.99937e-13
-6.50283e-13
-6.3405e-13
-5.99555e-13
-6.05013e-13
-6.49317e-13
-6.99111e-13
-6.73422e-13
-7.07335e-13
-6.82762e-13
-6.83966e-13
-7.53043e-13
-7.31784e-13
-6.62833e-13
-6.64542e-13
-6.39465e-13
-6.41451e-13
-6.45755e-13
-6.33465e-13
-6.01759e-13
-5.92367e-13
-5.83619e-13
-5.33192e-13
-4.95745e-13
-4.96226e-13
-4.56486e-13
-4.1519e-13
-3.92328e-13
-3.36906e-13
-2.73981e-13
-2.41035e-13
-1.78394e-13
-1.3154e-13
-1.19225e-13
-8.13636e-14
-1.80673e-14
1.08542e-15
-6.86077e-13
-7.06071e-13
-7.1229e-13
-7.03458e-13
-6.91219e-13
-7.24019e-13
-7.09667e-13
-7.01415e-13
-7.21579e-13
-6.97716e-13
-6.61946e-13
-6.65758e-13
-6.47059e-13
-6.21669e-13
-6.17301e-13
-6.49616e-13
-6.30708e-13
-5.88708e-13
-5.98007e-13
-6.22067e-13
-6.53328e-13
-6.14319e-13
-6.20154e-13
-6.04405e-13
-6.2582e-13
-6.35412e-13
-6.20463e-13
-6.3078e-13
-6.37181e-13
-6.48786e-13
-6.84317e-13
-6.78409e-13
-6.88158e-13
-7.12961e-13
-7.03188e-13
-7.19101e-13
-7.28789e-13
-7.0093e-13
-6.88052e-13
-6.64715e-13
-6.14292e-13
-6.2784e-13
-6.09942e-13
-5.89679e-13
-5.77975e-13
-5.5861e-13
-5.22581e-13
-4.92288e-13
-4.52774e-13
-4.08827e-13
-3.64586e-13
-3.24308e-13
-2.84869e-13
-2.36939e-13
-1.96742e-13
-1.44707e-13
-1.28902e-13
-8.61845e-14
-5.93344e-14
-1.38091e-14
-6.96223e-13
-6.95449e-13
-7.12608e-13
-7.11606e-13
-6.929e-13
-7.26447e-13
-7.15491e-13
-6.89295e-13
-7.21278e-13
-6.88914e-13
-6.63458e-13
-6.66323e-13
-6.53241e-13
-6.25781e-13
-6.17543e-13
-6.34031e-13
-6.22684e-13
-5.93763e-13
-5.99598e-13
-6.32066e-13
-6.56623e-13
-6.13104e-13
-6.17967e-13
-6.0641e-13
-6.24565e-13
-6.37801e-13
-6.21325e-13
-6.34382e-13
-6.28328e-13
-6.48325e-13
-6.76919e-13
-6.71441e-13
-6.91814e-13
-7.15031e-13
-7.07415e-13
-7.17818e-13
-7.30712e-13
-7.01777e-13
-6.89321e-13
-6.58666e-13
-6.12672e-13
-6.20208e-13
-6.24624e-13
-5.93781e-13
-5.67943e-13
-5.6274e-13
-5.25487e-13
-4.93103e-13
-4.46165e-13
-4.07198e-13
-3.6842e-13
-3.26965e-13
-2.81187e-13
-2.45773e-13
-1.97289e-13
-1.55292e-13
-1.21443e-13