/*--------------------------------*- C++ -*----------------------------------*\
  =========                 |
  \\      /  F ield         | OpenFOAM: The Open Source CFD Toolbox
   \\    /   O peration     | Website:  https://openfoam.org
    \\  /    A nd           | Version:  13
     \\/     M anipulation  |
\*---------------------------------------------------------------------------*/
FoamFile
{
    format      ascii;
    class       surfaceScalarField;
    location    "6";
    object      phi;
}
// * * * * * * * * * * * * * * * * * * * * * * * * * * * * * * * * * * * * * //

dimensions      [0 3 -1 0 0 0 0];

internalField   nonuniform List<scalar> 
169620
(
0.0728491
1.69002e-06
-3.23294e-07
0.0728454
3.9434e-06
-2.58623e-07
0.0728407
5.0701e-06
-3.87905e-07
0.0728333
7.88685e-06
-5.17144e-07
0.0728246
9.57696e-06
-8.40255e-07
0.072811
1.46473e-05
-1.03393e-06
0.0727919
1.97176e-05
-6.4588e-07
0.0727681
2.42245e-05
-3.87063e-07
0.0727324
3.54911e-05
1.94922e-07
0.0726833
4.73196e-05
1.74499e-06
0.0726104
6.92842e-05
3.68152e-06
0.0725058
9.85631e-05
6.00337e-06
0.0723659
0.000132899
7.03519e-06
0.0722045
0.00015653
4.85306e-06
0.0720312
0.00017172
1.52238e-06
0.071901
0.000131746
-1.55768e-06
0.0718331
7.09437e-05
-2.97841e-06
0.0718185
1.68935e-05
-2.35502e-06
0.0718454
-2.53377e-05
-1.53732e-06
0.0719172
-7.03884e-05
-1.35593e-06
0.0720276
-0.000108687
-1.74581e-06
0.0721675
-0.000138543
-1.36513e-06
0.0723115
-0.00014362
-3.36971e-07
0.0724416
-0.000130107
-7.5156e-08
0.072551
-0.00010927
-7.0932e-08
0.0726365
-8.50525e-05
-4.54551e-07
0.072702
-6.47765e-05
-7.75928e-07
0.0727508
-4.78793e-05
-9.04666e-07
0.072785
-3.32345e-05
-9.69293e-07
0.072809
-2.30956e-05
-9.04804e-07
0.0728259
-1.63361e-05
-5.17158e-07
0.0728366
-1.01397e-05
-5.81833e-07
0.0728442
-7.32321e-06
-2.58617e-07
0.0728504
-5.63327e-06
-5.81934e-07
0.0728535
-2.81665e-06
-2.5865e-07
0.0728557
-2.25333e-06
-1.50992e-17
0.072857
-1.12667e-06
-1.29331e-07
0.072857
-1.96903e-18
-4.03865e-18
0.072857
1.91566e-18
9.30354e-18
0.072857
-7.54192e-18
2.94905e-19
0.0728581
-1.12667e-06
3.39954e-18
0.0728581
4.03132e-18
7.19232e-18
0.0728581
8.27335e-19
4.89608e-18
0.0728581
1.01686e-17
1.1684e-17
0.0728581
-5.03228e-18
1.00423e-17
0.0728581
1.35474e-18
-1.82124e-18
0.0728581
-4.52694e-18
-1.81014e-17
0.0728581
4.02911e-19
5.49252e-19
0.0728581
9.46884e-19
1.27546e-17
0.0728581
1.05398e-17
3.47308e-18
0.0728581
2.94875e-18
-4.51499e-18
0.0728581
-4.97867e-19
-1.1221e-17
0.0728581
-5.06894e-18
2.3578e-18
0.0728581
2.54083e-18
9.08823e-18
0.0728581
3.3658e-18
9.09155e-19
0.0728581
5.7369e-20
-1.40248e-19
0.0728581
-4.2333e-19
1.26588e-17
0.0728581
-2.8801e-18
6.43479e-18
0.0728581
-4.12109e-18
-1.79378e-17
-4.84632e-18
-1.32144e-18
0.0728494
2.25335e-06
-2.58628e-07
0.0728479
5.6334e-06
-1.93954e-07
0.0728431
1.01401e-05
-1.93916e-07
0.0728383
1.29569e-05
-2.58507e-07
0.072826
2.19703e-05
-1.29015e-07
0.0728165
2.42235e-05
-6.397e-08
0.0728022
3.32363e-05
7.76994e-07
0.0727805
4.39377e-05
2.00594e-06
0.072753
5.85788e-05
4.39924e-06
0.0727104
8.16598e-05
8.21552e-06
0.0726458
0.000119924
1.39765e-05
0.0725458
0.000177844
2.07216e-05
0.0724042
0.000249756
2.4719e-05
0.0722219
0.000319367
1.95327e-05
0.0720145
0.000369312
9.7225e-06
0.071875
0.000271487
-2.40672e-07
0.0718266
0.000124797
-5.39922e-06
0.0718266
2.41852e-05
-7.31268e-06
0.0718578
-4.83432e-05
-8.22229e-06
0.0719394
-0.000140585
-1.13713e-05
0.0720521
-0.000207572
-1.38453e-05
0.0721924
-0.000265041
-1.37361e-05
0.0723334
-0.000274688
-9.99892e-06
0.0724616
-0.0002511
-7.21095e-06
0.0725672
-0.000209469
-5.38774e-06
0.0726498
-0.000163314
-4.34224e-06
0.0727125
-0.000123904
-3.49619e-06
0.0727564
-8.89917e-05
-2.84654e-06
0.0727902
-6.47757e-05
-2.19883e-06
0.0728134
-4.44998e-05
-1.81046e-06
0.0728273
-2.92918e-05
-9.69978e-07
0.0728407
-2.25325e-05
-9.69902e-07
0.0728446
-1.07031e-05
-5.81951e-07
0.0728495
-1.01398e-05
-3.87976e-07
0.0728534
-6.19661e-06
-5.17306e-07
0.0728546
-3.37999e-06
-6.4666e-08
0.0728552
-1.69e-06
-6.4666e-08
0.072857
-1.69e-06
-6.4666e-08
0.0728581
-1.12667e-06
7.04688e-18
0.0728581
-2.04073e-18
5.40649e-18
0.072857
3.35095e-18
-3.22732e-18
0.072857
-7.53486e-18
-1.41852e-18
0.072857
-1.02341e-17
-3.99861e-18
0.072857
9.81208e-18
5.88862e-18
0.072857
2.80704e-18
6.99789e-18
0.072857
-4.54302e-18
-1.66966e-18
0.072857
-9.01339e-18
-5.32828e-18
0.072857
1.27818e-17
2.54792e-19
0.072857
1.55675e-18
5.26009e-18
0.072857
-5.20896e-18
-3.11328e-18
0.072857
1.14048e-17
-4.27531e-19
0.072857
2.46389e-18
-3.19282e-19
0.072857
-3.724e-18
1.6476e-18
0.072857
-1.12256e-18
7.98073e-18
0.072857
8.92771e-19
1.65369e-18
0.072857
4.67932e-18
6.97214e-19
0.072857
3.91625e-18
4.12659e-18
0.072857
3.43726e-18
4.76254e-18
0.072857
-1.28589e-17
-6.22469e-18
-3.87647e-18
3.06829e-18
0.0728507
5.07002e-06
1.2e-11
0.0728497
6.76002e-06
-6.461e-08
0.0728457
1.40833e-05
6.4794e-08
0.0728386
1.97165e-05
3.2361e-07
0.0728349
2.47861e-05
8.41177e-07
0.0728242
3.3235e-05
1.68224e-06
0.0728117
4.22455e-05
3.55838e-06
0.0727978
5.12521e-05
6.59898e-06
0.0727764
6.75708e-05
1.23587e-05
0.0727444
9.17469e-05
2.18766e-05
0.0726885
0.000138365
3.75021e-05
0.0725821
0.000225852
5.83858e-05
0.0723903
0.000366892
7.4669e-05
0.072118
0.000530614
6.10997e-05
0.0717855
0.000669668
3.20677e-05
0.0716087
0.000447315
9.64768e-07
0.0716079
0.000137212
-1.15673e-05
0.0716409
1.01377e-05
-1.89794e-05
0.0716842
-6.71704e-05
-2.4433e-05
0.0718198
-0.000236518
-3.97095e-05
0.071979
-0.000319804
-4.69868e-05
0.0721685
-0.00040722
-4.72932e-05
0.0723426
-0.000413782
-3.5009e-05
0.0724852
-0.000369604
-2.41024e-05
0.072592
-0.000299411
-1.68118e-05
0.0726734
-0.000232505
-1.21892e-05
0.0727294
-0.000171177
-8.74458e-06
0.0727712
-0.000124459
-6.40801e-06
0.0727984
-8.72992e-05
-4.59361e-06
0.072819
-6.19586e-05
-3.16945e-06
0.0728328
-4.11199e-05
-1.94034e-06
0.0728398
-2.81651e-05
-1.42276e-06
0.0728487
-1.85893e-05
-9.7001e-07
0.0728504
-1.12664e-05
-5.82011e-07
0.0728525
-7.88656e-06
-4.52664e-07
0.0728552
-5.63329e-06
-3.88e-07
0.0728563
-2.81666e-06
-6.16864e-18
0.072857
-2.25333e-06
-1.29331e-07
0.072857
-1.12667e-06
5.65686e-18
0.072857
-7.35831e-18
2.12737e-18
0.0728581
-1.12667e-06
-1.94163e-18
0.0728581
-2.42973e-18
3.41248e-19
0.0728581
-9.53181e-18
2.09302e-18
0.0728581
3.15515e-18
-1.02186e-17
0.0728581
8.47401e-18
7.66486e-18
0.0728581
-2.97399e-18
3.96756e-18
0.0728581
-6.32234e-18
1.44127e-19
0.0728581
4.51418e-18
-5.15688e-18
0.0728581
1.20838e-17
6.57534e-18
0.0728581
6.4996e-19
-3.40098e-18
0.0728581
1.02144e-17
-3.06307e-18
0.0728581
5.12267e-18
-3.76177e-18
0.0728581
-2.75149e-18
2.77179e-18
0.0728581
-5.77287e-18
6.43006e-18
0.0728581
-6.25262e-19
-1.43493e-18
0.0728581
2.19472e-18
-1.35046e-18
0.0728581
2.97e-18
-1.0151e-18
0.0728581
2.30377e-18
1.24209e-18
0.0728581
-5.37331e-18
-1.08673e-18
-9.56672e-18
2.97591e-18
0.0728549
2.81667e-06
1.94004e-07
0.0728508
1.07033e-05
1.29372e-07
0.0728491
1.52098e-05
5.82098e-07
0.0728468
2.08427e-05
1.16429e-06
0.0728407
2.87283e-05
2.13467e-06
0.0728332
3.66122e-05
4.1402e-06
0.0728254
4.22399e-05
7.76346e-06
0.0728118
5.06765e-05
1.41693e-05
0.0727964
5.74071e-05
2.56266e-05
0.0727693
7.19695e-05
4.68082e-05
0.0727072
0.000115037
8.54813e-05
0.0725587
0.0002254
0.000148932
0.0721071
0.0006011
0.000217412
0.0715935
0.000211744
0.000178839
0.000233056
0.000164476
0.000256082
0.0709864
0.000334818
9.35184e-05
0.000224491
0.000345382
0.000278599
0.0707577
0.000238158
-6.80847e-06
8.38517e-05
0.000287278
7.35492e-05
0.0708951
3.34448e-06
-2.61042e-05
1.6515e-05
2.13648e-05
-1.53279e-05
0.0709896
4.21683e-05
-4.67261e-05
-5.62345e-05
6.41012e-06
-3.00142e-05
0.0710633
2.23999e-05
-6.11235e-05
-7.74761e-05
5.73087e-05
-8.19258e-05
0.0713774
-8.53865e-05
-0.000118675
-0.000138834
-5.49872e-05
-0.000152771
0.0717547
-0.000177409
-0.00012889
-0.000128713
-0.000158394
-0.000103728
0.0720878
-0.000600795
-0.000139473
0.0723463
-0.000574886
-9.74227e-05
0.0725155
-0.000477519
-6.13046e-05
0.0726286
-0.000373396
-3.90936e-05
0.0727026
-0.000280782
-2.56857e-05
0.0727509
-0.000202086
-1.74288e-05
0.0727869
-0.000148648
-1.18483e-05
0.0728112
-0.000103621
-7.95966e-06
0.072826
-7.15293e-05
-5.17573e-06
0.0728361
-4.78775e-05
-3.36344e-06
0.0728445
-3.43608e-05
-2.26352e-06
0.0728479
-2.08424e-05
-1.09942e-06
0.0728517
-1.40829e-05
-9.70036e-07
0.0728545
-1.01398e-05
-5.17359e-07
0.0728561
-6.75993e-06
-5.1734e-07
0.0728569
-3.37998e-06
-1.94004e-07
0.0728581
-3.38e-06
-1.29333e-07
0.072857
4.18531e-18
1.41003e-18
0.0728581
-1.12667e-06
-3.87403e-18
0.072857
-8.81968e-18
3.76911e-19
0.072857
-5.85192e-18
-2.32162e-18
0.0728581
-1.12667e-06
1.96795e-18
0.0728581
-3.64419e-18
-5.04312e-18
0.0728581
1.58956e-18
5.71419e-18
0.0728581
4.15245e-18
5.67758e-18
0.0728581
6.10758e-18
-2.36601e-18
0.0728581
4.9103e-18
-1.42831e-17
0.0728581
3.56404e-18
3.63055e-19
0.0728581
-9.6103e-18
-6.3864e-19
0.0728581
-9.1403e-18
-1.23734e-17
0.0728581
1.50201e-17
-4.66509e-19
0.0728581
1.06654e-17
3.93275e-18
0.0728581
-1.14459e-17
7.77091e-18
0.0728581
-1.55807e-18
1.37599e-18
0.0728581
4.10899e-18
-1.50822e-18
0.0728581
4.52005e-18
-1.54916e-18
0.0728581
-4.65398e-18
-8.21879e-18
0.0728581
-8.19052e-18
-6.16218e-18
1.73331e-19
6.46272e-18
0.0728551
3.94332e-06
1.9401e-07
0.0728546
1.07032e-05
5.17411e-07
0.0728535
1.52096e-05
1.09953e-06
0.0728513
2.08422e-05
2.13446e-06
0.0728462
2.98534e-05
4.01051e-06
0.0728412
3.43562e-05
7.24524e-06
0.0728302
3.99809e-05
1.3327e-05
0.0728158
4.05283e-05
2.44568e-05
0.0727908
3.76787e-05
4.47811e-05
0.0727452
3.25168e-05
8.50615e-05
0.0726471
4.38964e-05
0.000169182
0.0723061
0.000213221
0.000353236
0.0177765
0.000142947
0.000595817
0.0176684
0.0181367
0.0181562
0.000257963
1.55036e-05
0.000157187
0.0176888
0.000223129
7.63065e-05
-0.0175371
0.017433
0.000398867
3.99981e-05
-0.0173209
0.0172819
0.000301365
-2.42053e-05
-0.0172844
0.017337
1.10991e-05
-6.03589e-05
0.0174744
-3.64147e-05
-1.93433e-05
-0.0173765
-0.0174308
0.0174356
5.70949e-05
-3.94415e-05
-0.0174617
0.0175559
-0.000146818
-3.27135e-05
-0.0176005
0.0176929
-0.000187827
-8.19996e-05
0.0719289
-0.00112791
-0.000423624
-0.0178107
-0.0175737
-0.0178025
-0.0177913
0.0723516
-0.000744846
-0.000252663
0.0725664
-0.000554363
-0.000138037
0.072678
-0.000406654
-7.82986e-05
0.0727397
-0.000295217
-4.72331e-05
0.0727817
-0.000214388
-2.97465e-05
0.0728055
-0.000153118
-1.92978e-05
0.0728228
-0.000108675
-1.22973e-05
0.0728352
-7.60294e-05
-7.89338e-06
0.0728435
-5.12548e-05
-4.91621e-06
0.0728473
-3.49231e-05
-3.16936e-06
0.0728518
-2.36586e-05
-1.74619e-06
0.0728541
-1.52095e-05
-1.16401e-06
0.0728549
-1.01398e-05
-7.75993e-07
0.0728558
-7.32324e-06
-3.23343e-07
0.0728574
-4.50663e-06
-5.17339e-07
0.0728558
-1.69e-06
-6.4668e-08
0.0728581
-2.25333e-06
-6.4667e-08
0.0728581
-1.12667e-06
-7.9035e-19
0.0728581
-9.13462e-20
9.7364e-18
0.0728581
2.75209e-18
-2.12063e-18
0.072857
-9.02528e-19
7.63046e-18
0.072857
-8.00565e-18
-4.45583e-18
0.072857
-3.46077e-18
4.08446e-18
0.072857
1.04439e-17
1.01423e-17
0.072857
5.10874e-18
-6.60459e-18
0.072857
-2.3087e-18
-2.21447e-17
0.072857
-5.82864e-19
-3.16966e-19
0.072857
3.32871e-18
9.43663e-18
0.072857
-1.80543e-18
5.2336e-18
0.072857
6.07646e-18
-7.42158e-18
0.072857
2.79036e-18
-6.3866e-18
0.072857
-5.89958e-18
7.00556e-18
0.072857
5.16673e-18
-2.08508e-18
0.072857
4.98096e-18
6.94326e-19
0.072857
-3.67786e-18
-1.80837e-18
0.072857
-9.01977e-18
-1.15307e-17
0.072857
-2.27024e-18
-4.21509e-18
2.34187e-18
9.76599e-18
0.072858
3.37996e-06
3.88026e-07
0.0728577
1.01398e-05
8.40765e-07
0.0728566
1.46461e-05
1.68158e-06
0.0728534
2.08417e-05
3.23397e-06
0.0728508
2.64725e-05
6.01558e-06
0.0728432
3.0974e-05
1.09326e-05
0.0728285
3.49066e-05
1.97969e-05
0.0728021
3.09475e-05
3.59724e-05
0.0727525
2.07829e-05
6.64484e-05
0.0726518
6.62818e-06
0.000126623
0.07243
7.84115e-06
0.000257864
0.0178222
0.000218839
0.000658731
0.0178057
0.0181153
0.0180225
0.0176491
0.000141887
0.000174205
0.0165223
0.000512136
0.000604332
-0.000345699
-0.0172931
-0.0161719
0.000187161
0.000205202
0.000221997
0.000170264
-0.000644843
0.00399966
0.0040226
0.00408653
0.00395271
-6.09013e-05
6.35021e-05
-6.35206e-05
3.15584e-05
-0.00402688
0.0156394
0.0003674
0.000180782
-0.000326558
-0.00388858
-0.0040709
-0.00387464
-0.0159852
0.016096
-8.27991e-05
-2.10637e-05
-6.98809e-06
-0.0160771
-4.64963e-06
7.0588e-06
-8.39867e-05
2.10385e-05
6.16554e-05
-0.000114295
-1.34053e-05
-0.000101079
-0.000119358
0.00408496
0.00413507
0.00415853
0.00404556
-0.00411258
0.0160063
0.000199454
0.000167657
-0.000111096
-0.00402549
-0.00412749
-0.00399672
-0.0162561
0.0165897
-0.000340741
-0.000202625
0.000209704
-0.0168699
0.0172213
-0.000365396
-0.000161517
0.000175472
0.0717922
-0.00123967
-0.00124461
-0.0173883
-0.0173141
-0.0178286
-0.0179048
0.0724046
-0.000751166
-0.000606051
0.0726351
-0.000508483
-0.000276381
0.0727319
-0.000365107
-0.000138333
0.0727808
-0.000267457
-7.67032e-05
0.0728071
-0.000195174
-4.54992e-05
0.0728244
-0.000142389
-2.80408e-05
0.0728356
-0.000102468
-1.7411e-05
0.0728426
-7.20816e-05
-1.09346e-05
0.0728485
-5.06893e-05
-6.46896e-06
0.0728509
-3.32324e-05
-4.07483e-06
0.0728547
-2.47848e-05
-2.65163e-06
0.0728555
-1.4646e-05
-1.42278e-06
0.0728564
-1.01398e-05
-9.05374e-07
0.0728567
-7.32322e-06
-2.58682e-07
0.0728574
-4.50663e-06
-7.11335e-07
0.072858
-2.25333e-06
2.14857e-17
0.0728581
-2.25333e-06
-1.29334e-07
0.072857
-4.66312e-18
-8.4924e-18
0.0728581
-1.12667e-06
3.15629e-18
0.0728581
-4.16404e-18
-2.3989e-18
0.0728581
-6.58585e-18
-3.16533e-18
0.0728581
-2.16641e-18
-1.90469e-18
0.0728581
-6.07672e-18
-3.63276e-19
0.0728581
1.19106e-17
6.02313e-18
0.0728581
8.75289e-18
4.66743e-19
0.0728581
7.6612e-18
-8.12275e-18
0.0728581
6.16548e-18
2.03327e-19
0.0728581
2.41691e-18
8.68816e-18
0.0728581
4.85151e-18
9.43034e-18
0.0728581
-1.65722e-18
-5.67525e-18
0.0728581
8.24215e-19
-2.87495e-18
0.0728581
-7.60833e-18
-2.26054e-18
0.0728581
-1.4967e-17
-1.34324e-17
0.0728581
-7.32021e-19
-2.90305e-18
0.0728581
1.59101e-18
3.0548e-18
0.0728581
2.65735e-18
4.37402e-18
0.0728581
-2.43332e-18
-7.41469e-19
6.4497e-18
-3.01989e-18
0.0728593
3.37995e-06
5.82036e-07
0.0728587
9.57639e-06
1.09946e-06
0.0728582
1.2956e-05
2.26366e-06
0.0728555
1.91513e-05
4.33353e-06
0.0728504
2.36551e-05
7.89136e-06
0.0728406
2.64665e-05
1.43604e-05
0.0728224
2.70204e-05
2.60707e-05
0.0727821
2.4752e-05
4.65147e-05
0.0727042
1.45968e-05
8.40949e-05
0.0725538
6.66303e-06
0.000150359
0.0722808
1.93719e-05
0.000261423
0.017813
0.000164557
0.000480543
0.0179389
0.0180127
0.01809
0.0176552
9.0862e-05
0.000217567
-0.000150693
0.000105679
-0.000516849
-0.017008
0.00439886
0.00395894
0.00419977
0.00405352
0.000149361
0.00028254
0.000137049
0.000239161
-0.000265431
-0.00402737
0.00425673
0.000189782
-0.000153714
-0.00107838
0.000119153
0.00340823
-5.32659e-05
0.000939793
-0.00118954
-0.00103144
-0.00111455
-0.00370749
3.52814e-05
0.00371631
-1.29363e-05
-3.11683e-05
-0.00369888
-0.000111537
0.0043493
7.88269e-05
-0.000617706
-0.00112768
0.00018627
0.00379246
-0.000111289
0.000777379
-0.00124359
-0.00108604
-0.00118751
-0.00383811
5.33869e-05
0.00390556
-2.40017e-05
-9.68331e-05
-0.00410276
0.0164491
8.22239e-06
0.000419373
-0.00405291
-0.00411862
-0.0040161
-5.28425e-05
0.000129015
-0.000427757
-0.000234699
0.0718704
1.21518e-05
-0.00337957
-0.0170448
-0.016599
-0.0181587
-0.0179401
0.0724709
-0.000226553
-0.00112504
0.0726841
-0.000266168
-0.000455514
0.0727668
-0.000238561
-0.000209263
0.0728043
-0.000195951
-0.000109009
0.0728259
-0.000154615
-6.21503e-05
0.0728381
-0.0001176
-3.69767e-05
0.0728453
-8.72557e-05
-2.24596e-05
0.07285
-6.30668e-05
-1.37172e-05
0.0728515
-4.3929e-05
-8.28016e-06
0.0728554
-3.21053e-05
-4.98033e-06
0.0728557
-2.19681e-05
-3.10444e-06
0.0728568
-1.40826e-05
-1.68151e-06
0.0728573
-9.57636e-06
-1.03476e-06
0.0728578
-7.32319e-06
-5.17366e-07
0.0728578
-3.94329e-06
-5.82012e-07
0.0728574
-1.68999e-06
-1.94007e-07
0.072857
-1.69e-06
-1.29333e-07
0.0728581
-1.12667e-06
-7.18563e-18
0.072857
-6.27896e-19
4.73266e-19
0.072857
-1.47192e-18
3.13505e-19
0.0728581
-1.12667e-06
-1.23692e-18
0.0728581
-8.5216e-18
-3.4291e-18
0.0728581
-1.02312e-17
1.23946e-18
0.0728581
1.63476e-18
-5.52912e-18
0.0728581
1.48035e-17
6.24701e-19
0.0728581
-7.75436e-18
-9.15062e-18
0.0728581
6.80951e-18
1.46635e-18
0.0728581
1.31412e-17
1.57284e-17
0.0728581
3.71658e-18
4.10986e-18
0.0728581
7.33729e-19
-1.58248e-18
0.0728581
-5.15289e-19
4.903e-19
0.0728581
-9.48827e-18
2.67515e-18
0.0728581
-1.42845e-17
-4.42647e-18
0.0728581
1.43535e-19
-2.29046e-18
0.0728581
-2.37216e-18
2.88673e-19
0.0728581
-3.81075e-18
-3.38734e-18
0.0728581
-2.11887e-18
-4.39866e-18
-2.43084e-18
-7.05934e-18
0.0728598
3.37993e-06
5.82042e-07
0.0728606
7.37942e-06
1.42279e-06
0.0728595
1.14349e-05
2.65168e-06
0.0728576
1.58277e-05
5.2389e-06
0.0728521
1.98247e-05
9.31414e-06
0.0728389
2.28051e-05
1.68829e-05
0.072812
2.33032e-05
3.05973e-05
0.0727635
1.90113e-05
5.42103e-05
0.0726736
9.20519e-06
9.52863e-05
0.0725235
-4.5234e-06
0.000161318
0.072317
-1.29044e-05
0.000238797
0.0180486
8.38774e-06
0.000174801
0.0180895
0.0181094
0.0180509
-3.8294e-05
0.0181776
4.29476e-06
-9.49971e-05
0.000151697
-9.18627e-05
0.0044639
0.0039453
0.00465
0.00368981
-0.0180767
0.000554674
0.000151736
0.000353532
0.000207948
0.000296422
-0.00311648
0.00300811
-0.000154831
-3.32225e-05
-0.000402914
-0.00352416
0.00340644
0.000207889
0.000312746
1.05719e-05
-0.00357754
0.00355086
2.80502e-06
1.33017e-05
0.000320175
-0.00324433
0.00354782
-0.000149096
-0.00047457
-0.000377896
-0.00358446
0.00338015
0.000185121
0.000397084
-2.00556e-06
-0.00360323
0.00363477
1.15581e-05
-4.11006e-05
-0.00352869
-8.90525e-05
0.0149611
9.20089e-05
-0.00137864
-0.0034197
-0.00338855
-0.00324848
0.071016
0.000267176
-0.00399659
-0.0161715
-0.0158955
-0.0176878
-0.0175196
0.0722127
3.77646e-05
-0.00146101
0.0726074
-7.50268e-05
-0.000585861
0.0727482
-0.00011485
-0.000264528
0.072805
-0.00011751
-0.000135219
0.0728305
-0.000104603
-7.55453e-05
0.0728432
-8.5964e-05
-4.42874e-05
0.0728498
-6.7378e-05
-2.65347e-05
0.0728538
-5.10141e-05
-1.59809e-05
0.0728568
-3.7226e-05
-9.70324e-06
0.0728571
-2.66976e-05
-5.75657e-06
0.0728572
-1.85882e-05
-3.42774e-06
0.0728575
-1.25053e-05
-1.94013e-06
0.0728576
-8.61871e-06
-1.03471e-06
0.0728567
-5.57689e-06
-8.40674e-07
0.0728564
-3.43629e-06
-2.58671e-07
0.0728577
-2.42232e-06
-5.17335e-07
0.0728574
-1.29566e-06
-1.29333e-07
0.0728572
-8.45e-07
-1.45037e-17
0.0728579
-7.32333e-07
-1.27634e-17
0.0728581
-2.25333e-07
-2.15708e-19
0.0728572
-2.25333e-07
3.88134e-18
0.0728573
-5.63333e-08
1.78235e-18
0.0728573
-5.63333e-08
4.52813e-18
0.0728573
-2.86008e-19
1.65493e-18
0.0728573
-4.39539e-18
-5.12089e-18
0.0728573
4.50112e-18
3.49116e-18
0.0728573
7.78548e-18
3.39261e-18
0.0728573
4.19626e-18
9.49219e-18
0.0728573
-9.55163e-18
-4.4234e-18
0.0728573
-3.58684e-18
-7.49909e-18
0.0728573
-2.17457e-19
-4.97397e-19
0.0728573
-3.66197e-18
7.40847e-18
0.0728573
-4.53613e-18
-4.06142e-20
0.0728573
-3.49477e-18
-8.61701e-18
0.0728573
1.75138e-18
3.47314e-18
0.0728573
5.51229e-18
5.74971e-18
0.0728573
-4.25847e-18
2.88213e-18
-8.74156e-18
-5.82975e-18
0.0728609
2.76591e-06
5.82038e-07
0.0728606
6.10068e-06
1.55213e-06
0.0728594
9.64924e-06
2.97499e-06
0.0728562
1.35126e-05
5.56209e-06
0.0728484
1.74816e-05
1.00897e-05
0.0728323
2.07946e-05
1.81749e-05
0.072801
2.20591e-05
3.24695e-05
0.0727444
1.87482e-05
5.69178e-05
0.0726476
7.38576e-06
9.86328e-05
0.0724926
-1.52582e-05
0.000165706
0.0722709
-4.74798e-05
0.000256246
0.0718697
-7.16384e-05
0.000481285
0.0161384
3.6987e-05
-8.57824e-05
0.0156793
0.0204328
0.0200792
-0.00055215
6.31042e-05
-1.07925e-05
1.56815e-05
3.40671e-05
1.54903e-05
2.33726e-05
4.36724e-05
3.69271e-06
0.00310571
0.00355573
0.00293288
0.00367425
0.00282252
1.8295e-05
-0.0025294
0.00296529
-1.09609e-05
-0.000443225
-2.82155e-05
-0.00369582
0.00364798
1.10469e-05
6.50003e-05
5.41899e-07
-0.00358723
0.00359026
8.88979e-08
-3.65901e-06
1.54437e-05
-0.00361776
0.00369943
-7.83767e-06
-8.92746e-05
-2.32177e-05
-0.00372899
0.00365658
9.63636e-06
8.59898e-05
-5.21108e-06
-0.00356669
0.00354564
3.9759e-06
2.22822e-05
-0.00327847
-4.11891e-05
0.0144309
2.5157e-05
-0.00156947
-0.003266
-0.00315629
-0.00314467
0.0704563
0.00014969
-0.00403153
-0.0157627
-0.0156866
-0.0174551
-0.0174029
0.0719497
8.98018e-05
-0.00154546
0.0724925
1.76597e-05
-0.000635474
0.0726993
-3.12421e-05
-0.000290391
0.0727852
-5.4551e-05
-0.00014888
0.0728236
-6.01525e-05
-8.2903e-05
0.0728421
-5.59571e-05
-4.84215e-05
0.072851
-4.74216e-05
-2.8926e-05
0.0728552
-3.78262e-05
-1.74031e-05
0.0728573
-2.88343e-05
-1.04143e-05
0.072858
-2.11721e-05
-6.27381e-06
0.0728582
-1.51127e-05
-3.62175e-06
0.0728584
-1.04999e-05
-2.19882e-06
0.0728579
-7.12593e-06
-1.0347e-06
0.072858
-4.75444e-06
-9.05352e-07
0.0728578
-3.0814e-06
-1.29335e-07
0.072858
-1.97729e-06
-6.46671e-07
0.072858
-1.2337e-06
-1.29334e-07
0.072858
-7.774e-07
-2.93543e-18
0.0728577
-4.50666e-07
-1.00738e-18
0.0728577
-2.92933e-07
-2.12336e-20
0.0728577
-1.57733e-07
-6.44808e-18
0.0728577
-1.014e-07
7.07178e-18
0.0728577
-5.63333e-08
-5.12565e-18
0.0728577
-3.38e-08
-1.02255e-18
0.0728578
-1.12667e-08
-1.85352e-18
0.0728578
-5.55973e-18
-2.3046e-19
0.0728578
-1.12667e-08
-3.93254e-18
0.0728578
-2.93199e-18
2.28939e-19
0.0728578
-2.34921e-18
2.51028e-18
0.0728578
-6.47933e-18
-6.73646e-18
0.0728578
7.19296e-18
8.7001e-18
0.0728578
8.07144e-18
1.11758e-17
0.0728578
1.75666e-18
-6.3275e-18
0.0728578
-1.20422e-17
-1.03723e-17
0.0728578
-1.54382e-17
-3.55674e-18
0.0728578
1.9694e-18
7.83005e-18
0.0728578
-1.87297e-18
1.48691e-19
-6.14063e-18
3.03549e-18
0.0728608
2.14062e-06
6.46705e-07
0.0728603
5.06982e-06
1.48743e-06
0.0728585
8.39311e-06
3.03957e-06
0.0728544
1.22228e-05
5.4325e-06
0.0728448
1.70087e-05
1.0089e-05
0.0728253
2.25239e-05
1.77847e-05
0.0727887
2.73577e-05
3.12989e-05
0.0727244
2.9256e-05
5.37309e-05
0.0726193
2.23747e-05
9.01139e-05
0.0724665
-4.5349e-06
0.000142062
0.0722951
-6.76227e-05
0.000191611
0.0720906
-0.000175742
0.00030857
0.0157632
-2.15479e-05
5.70107e-05
0.0164933
0.0202416
0.0202714
-1.99593e-05
-0.000158493
-0.000453783
-4.41492e-07
-3.30441e-05
-1.16365e-05
-2.59117e-05
1.14589e-05
0.00346998
0.00343784
0.00271022
0.00342054
0.00273903
3.52064e-06
-0.00242825
0.0028858
-2.62189e-06
-0.000458439
-2.06936e-06
-0.00356497
0.00358645
7.86429e-07
-2.01942e-05
-3.70505e-07
-0.00358037
0.00358761
1.10671e-07
-6.98395e-06
2.15599e-07
-0.00358845
0.00360503
2.793e-07
-1.70767e-05
-1.04309e-06
-0.00359972
0.00359694
-2.2247e-08
3.8444e-06
-5.24912e-07
-0.0035583
0.00353672
-5.38285e-07
2.26447e-05
-0.00326616
8.33395e-06
0.0143737
1.14082e-05
-0.00156051
-0.00326073
-0.00315937
-0.00314669
0.0703016
0.00012209
-0.00408829
-0.0156843
-0.0156785
-0.0174284
-0.0173943
0.071827
0.000114774
-0.00155043
0.072414
6.65266e-05
-0.000635837
0.0726543
1.89115e-05
-0.000290514
0.072761
-1.21196e-05
-0.000149051
0.0728114
-2.7428e-05
-8.31959e-05
0.0728365
-3.22354e-05
-4.87985e-05
0.0728487
-3.04518e-05
-2.91806e-05
0.0728545
-2.60698e-05
-1.75311e-05
0.072857
-2.08374e-05
-1.05432e-05
0.0728582
-1.5996e-05
-6.33831e-06
0.0728584
-1.16598e-05
-3.6217e-06
0.0728585
-8.28053e-06
-2.32815e-06
0.0728581
-5.68948e-06
-1.03471e-06
0.0728581
-3.83059e-06
-9.05355e-07
0.0728577
-2.5913e-06
-1.29335e-07
0.072858
-1.63365e-06
-6.46672e-07
0.072858
-1.07033e-06
-1.29334e-07
0.0728579
-7.32333e-07
-2.34568e-19
0.0728579
-3.94333e-07
3.21208e-18
0.0728579
-2.81667e-07
4.63077e-18
0.0728578
-5.63333e-08
-5.48788e-18
0.0728578
-1.12667e-07
1.56778e-17
0.0728577
2.66514e-18
-6.4323e-18
0.0728577
-2.7798e-18
-5.0648e-18
0.0728578
-1.12667e-07
1.14924e-18
0.0728578
9.92468e-18
6.52763e-18
0.0728578
-4.95007e-19
-2.16618e-18
0.0728578
4.82445e-19
-3.93671e-18
0.0728578
6.10138e-19
-1.20902e-18
0.0728578
-1.48024e-18
1.16108e-19
0.0728578
-3.7618e-18
5.05048e-18
0.0728578
5.95816e-18
4.45825e-18
0.0728578
8.62795e-18
-1.92486e-18
0.0728578
-1.26534e-17
-3.73581e-18
0.0728578
-1.20246e-17
2.85614e-18
0.0728578
1.95158e-18
6.6567e-18
0.0728578
-5.70852e-18
-4.31308e-18
-1.03912e-17
-2.43698e-18
0.072861
1.12665e-06
5.17359e-07
0.072858
6.7598e-06
1.35804e-06
0.0728567
6.75961e-06
2.91009e-06
0.0728515
1.23919e-05
4.97951e-06
0.072842
1.74598e-05
9.11809e-06
0.0728204
2.81565e-05
1.59069e-05
0.0727808
3.94087e-05
2.76058e-05
0.072708
5.57115e-05
4.63377e-05
0.07259
6.63633e-05
7.40153e-05
0.0724219
6.07045e-05
0.000102844
0.0722809
-3.89473e-06
7.72308e-05
0.0182819
-0.000252075
-0.000363988
0.0182821
0.0180786
0.0180786
0.0185319
-4.54314e-05
-0.000226123
-3.15124e-05
6.64838e-05
0.00453302
0.00343144
0.00408602
0.00388426
-0.0181279
0.000699693
0.000441014
0.000871896
0.000145544
-9.56953e-06
-0.00283241
0.00321547
1.72034e-05
-0.0003907
1.13884e-05
-0.00376996
0.00367528
-2.1996e-05
0.000105292
-1.10526e-07
-0.00357218
0.00356686
3.87925e-07
5.03705e-06
-8.94915e-06
-0.0035324
0.00368083
1.86546e-05
-0.000158139
9.74327e-06
-0.00381438
0.00370122
-2.25019e-05
0.000125922
2.84097e-06
-0.00357106
0.00354972
-2.68877e-06
2.11885e-05
-0.00326709
1.0133e-05
0.0144431
-2.24615e-05
-0.00158027
-0.00330273
-0.0031279
-0.00315274
0.0704624
0.000263585
-0.00396952
-0.0157712
-0.0159785
-0.0174189
-0.0174658
0.0718431
0.000178207
-0.0014441
0.0723906
0.000100721
-0.000581693
0.0726303
4.36653e-05
-0.000264443
0.0727431
1.12263e-05
-0.00013615
0.0728002
-7.87118e-06
-7.66277e-05
0.0728305
-1.74419e-05
-4.51638e-05
0.072846
-1.85762e-05
-2.73007e-05
0.0728532
-1.68924e-05
-1.643e-05
0.0728563
-1.40795e-05
-9.89594e-06
0.0728577
-1.12649e-05
-6.0794e-06
0.0728586
-9.01251e-06
-3.55693e-06
0.0728586
-6.19634e-06
-2.06944e-06
0.0728584
-4.50652e-06
-1.03471e-06
0.0728595
-3.94325e-06
-9.05365e-07
0.0728587
-1.68998e-06
-1.29337e-07
0.0728588
-1.12666e-06
-6.46679e-07
0.0728579
-9.24913e-18
-1.29335e-07
0.0728583
-1.12667e-06
1.74909e-18
0.0728579
3.11421e-18
-6.64519e-18
0.0728576
1.85488e-17
8.00198e-18
0.0728575
7.93271e-19
-4.97247e-18
0.0728574
8.48524e-18
3.54618e-18
0.0728574
2.63863e-18
-3.65608e-18
0.0728574
-2.92452e-18
3.57628e-18
0.0728573
-7.25915e-18
-2.88628e-18
0.0728573
1.59356e-17
-2.19613e-18
0.0728573
1.06655e-17
-2.97858e-18
0.0728573
7.63699e-20
2.83456e-18
0.0728573
-4.45151e-18
9.14869e-18
0.0728573
-5.16405e-19
-2.39083e-18
0.0728573
-8.51085e-19
-2.98493e-18
0.0728573
9.14659e-18
-1.68563e-18
0.0728573
5.50729e-19
-6.28609e-18
0.0728573
-1.29974e-17
-2.13056e-18
0.0728573
6.38934e-18
1.27351e-17
0.0728573
1.31581e-17
1.16151e-17
0.0728573
-6.73627e-18
-5.61121e-18
-3.22832e-18
1.61643e-18
0.0728597
5.63325e-07
3.88014e-07
0.0728601
5.06988e-06
1.29338e-06
0.0728582
6.19637e-06
2.45745e-06
0.0728528
1.35188e-05
4.26802e-06
0.0728414
2.14032e-05
7.50078e-06
0.0728202
3.60429e-05
1.32538e-05
0.0727802
5.68684e-05
2.25569e-05
0.0727123
8.61187e-05
3.74667e-05
0.0725881
0.000130519
6.00807e-05
0.07238
0.000181031
8.77482e-05
0.0720648
0.00021357
9.77794e-05
0.0181194
-9.52928e-05
2.82088e-05
0.0179031
0.0179895
0.0178678
0.0183235
-0.000134805
-0.000152789
8.34052e-05
-3.09433e-05
-0.00017706
-0.0187438
0.00461314
0.00442432
0.00495141
0.00428465
0.000322983
-9.00241e-05
0.000324061
0.000121232
-0.000175101
-0.00372924
0.00383654
0.000251828
-0.000184028
0.000174092
-0.00102477
0.00311609
-0.000156471
0.00099656
-0.00108514
-0.000989183
-0.00103119
1.61107e-06
-0.00342576
0.00334665
-3.87862e-06
8.13812e-05
-0.000136612
-0.00218619
0.00334542
0.000170997
-0.00119362
0.000209056
-0.00102343
0.0032951
-0.000192042
0.000827666
-0.00109287
-0.000985178
-0.00103831
3.87467e-06
-0.003568
0.00364968
2.75481e-06
-8.83125e-05
-0.00368053
1.88229e-05
0.0155009
5.99023e-05
-0.0038254
-0.0035056
-0.0037797
-1.42586e-05
8.10175e-05
-0.0003521
-0.000503103
0.0708903
0.000454706
-0.00313568
-0.016321
-0.0166207
-0.0175409
-0.0174631
0.0719591
0.000201734
-0.00109232
0.0724154
9.48596e-05
-0.000450379
0.0726292
4.03499e-05
-0.000210518
0.0727383
1.3478e-05
-0.000111361
0.0727951
-5.63514e-07
-6.41161e-05
0.0728258
-9.5673e-06
-3.85547e-05
0.0728426
-1.18227e-05
-2.35446e-05
0.0728509
-1.06992e-05
-1.44879e-05
0.0728544
-9.01118e-06
-8.60176e-06
0.0728577
-9.01206e-06
-5.49717e-06
0.0728575
-5.63287e-06
-3.23352e-06
0.0728576
-4.50644e-06
-1.74606e-06
0.0728592
-5.06984e-06
-1.09937e-06
0.0728578
-1.68997e-06
-7.76017e-07
0.0728576
-1.12666e-06
-3.87998e-07
0.072858
-1.12666e-06
-3.87998e-07
0.0728581
-3.53399e-18
-1.29334e-07
0.0728581
-1.12667e-06
9.78517e-18
0.0728581
1.3246e-18
-8.08947e-18
0.0728581
-3.52891e-18
-8.46693e-18
0.0728581
1.40621e-18
7.4287e-19
0.0728581
4.22379e-18
-4.75373e-18
0.0728581
1.09336e-17
3.54028e-18
0.0728581
1.38928e-17
1.45492e-17
0.0728581
4.37011e-18
7.70097e-18
0.0728581
-1.28402e-17
-1.60621e-17
0.0728581
-6.52103e-18
-1.19519e-17
0.0728581
4.25257e-18
7.18223e-18
0.0728581
8.6793e-18
1.17152e-17
0.0728581
8.7101e-18
-1.99052e-18
0.0728581
-2.46562e-18
-5.02091e-18
0.0728581
-9.14881e-18
-7.87227e-18
0.0728581
-5.54525e-18
-1.18346e-17
0.0728581
4.59759e-18
3.76591e-18
0.0728581
5.52291e-18
7.79653e-19
0.0728581
-1.83429e-17
-5.97048e-18
0.0728581
-5.55537e-19
6.64697e-18
-4.05145e-18
1.46001e-17
0.0728589
1.12665e-06
3.23345e-07
0.0728595
3.37993e-06
1.09936e-06
0.0728548
9.013e-06
1.87531e-06
0.0728532
1.18292e-05
3.23311e-06
0.0728452
2.36572e-05
5.81916e-06
0.0728305
4.05515e-05
1.0214e-05
0.0728028
6.75757e-05
1.69311e-05
0.0727518
0.000108658
2.84817e-05
0.0726634
0.000171648
4.72899e-05
0.0725117
0.000252546
8.0197e-05
0.072236
0.000342309
0.00014695
0.0713288
0.000372417
0.00043947
0.017263
-0.000326435
0.000170383
0.0173603
0.017237
0.0177471
0.000197904
0.000311999
6.85941e-05
0.000517576
0.00043621
0.000187247
0.000157916
0.00048539
-0.000467487
0.000553427
0.00416533
0.00420756
0.00417753
0.00414127
8.03864e-05
-0.00420188
0.00429354
-0.000119493
-5.25488e-05
3.96748e-05
-0.00400619
0.0145206
-0.000234877
8.05184e-05
0.000116918
0.000160487
-0.0039897
-0.00395903
-0.00392248
0.000587557
0.000186873
-6.15779e-06