/*--------------------------------*- C++ -*----------------------------------*\
  =========                 |
  \\      /  F ield         | OpenFOAM: The Open Source CFD Toolbox
   \\    /   O peration     | Website:  https://openfoam.org
    \\  /    A nd           | Version:  13
     \\/     M anipulation  |
\*---------------------------------------------------------------------------*/
FoamFile
{
    format      ascii;
    class       volVectorField;
    location    "6";
    object      U;
}
// * * * * * * * * * * * * * * * * * * * * * * * * * * * * * * * * * * * * * //

dimensions      [0 1 -1 0 0 0 0];

internalField   nonuniform List<vector> 
54636
(
(20 -3.22179e-16 -1.97457e-16)
(20 -2.53558e-16 -2.48655e-16)
(20 -4.25897e-16 1.20941e-16)
(20 8.55484e-17 3.47171e-17)
(20 -9.78142e-17 2.40985e-17)
(20 -2.44881e-16 -3.28107e-16)
(20 2.3181e-16 -5.91369e-16)
(20 1.51573e-16 6.18689e-16)
(20 6.78788e-16 6.88119e-16)
(20 -5.37868e-16 6.85275e-17)
(20 -1.558e-16 -1.03073e-16)
(20 -5.42126e-16 -5.50035e-16)
(20 6.79026e-16 2.2793e-16)
(20 3.76234e-16 -4.38138e-16)
(20 -3.50463e-16 -1.02676e-15)
(20 -2.54626e-16 1.86231e-16)
(20 -6.04288e-16 2.19847e-16)
(20 -8.3246e-16 -3.00738e-17)
(20 -4.98901e-16 6.1619e-16)
(20 -1.57396e-16 1.12414e-16)
(20 -3.13582e-16 6.036e-16)
(20 1.07681e-16 1.18704e-16)
(20 -3.26183e-16 1.63025e-17)
(20 3.87834e-16 -5.99725e-17)
(20 5.73404e-16 9.35954e-16)
(20 5.09492e-16 9.40538e-16)
(20 4.71458e-16 -7.00926e-17)
(20 7.19663e-16 -4.35512e-16)
(20 -3.53901e-16 -7.38676e-16)
(20 2.31291e-19 -2.1064e-16)
(20 -3.90908e-16 -1.82469e-16)
(20 -9.31005e-16 -1.82672e-16)
(20 -6.96478e-16 -1.97728e-16)
(20 -7.61424e-16 1.09154e-16)
(20 5.56147e-18 5.68666e-16)
(20 -5.9172e-17 -8.31052e-16)
(20 3.07544e-16 -1.21348e-15)
(20 -2.78121e-17 4.158e-17)
(20 -3.83506e-16 1.87348e-16)
(20 -6.2564e-16 -2.75915e-16)
(20 2.37894e-16 -1.02313e-16)
(20 1.48016e-16 3.50929e-16)
(20 7.26045e-16 7.99979e-16)
(20 9.35832e-16 9.08304e-16)
(20 -1.10531e-16 2.63238e-16)
(20 -1.81875e-16 -3.17359e-16)
(20 6.81916e-17 -2.03426e-16)
(20 2.99776e-16 5.34079e-16)
(20 3.44867e-16 4.39738e-16)
(20 5.41207e-16 1.79221e-16)
(20 2.44282e-16 -3.41717e-16)
(20 -1.79504e-16 -4.44158e-16)
(20 -8.17709e-16 9.23713e-17)
(20 -4.26828e-16 3.45459e-16)
(20 4.267e-16 2.62901e-16)
(20 7.26736e-16 1.19543e-16)
(20 3.53054e-16 1.15876e-16)
(20 -5.67275e-16 -2.06021e-16)
(20 -6.44649e-16 -3.40594e-16)
(20 1.05721e-16 2.32317e-16)
(20 -5.39166e-16 4.5296e-16)
(20 -6.53926e-16 1.21635e-16)
(20 -3.66866e-16 3.03148e-17)
(20 2.00476e-16 -2.09906e-16)
(20 1.64947e-17 3.86297e-17)
(20 -1.90417e-16 -2.33305e-16)
(20 1.27443e-16 -6.12198e-16)
(20 8.18079e-17 1.29826e-16)
(20 4.30518e-16 1.65846e-17)
(20 -3.69034e-16 2.21544e-16)
(20 -8.58754e-16 1.62292e-16)
(20 -7.49857e-16 -2.53618e-16)
(20 1.13338e-15 9.1586e-17)
(20 5.43819e-16 -5.16382e-16)
(20 -3.02546e-16 -4.59703e-16)
(20 -7.32198e-16 2.67109e-16)
(20 -9.88695e-16 2.65464e-16)
(20 -1.29932e-15 1.45889e-16)
(20 -1.20517e-15 3.23485e-16)
(20 -5.07449e-16 1.85249e-16)
(20 7.06324e-16 8.57681e-16)
(20 1.09658e-15 -3.63112e-16)
(20 8.68057e-17 1.80564e-16)
(20 4.44646e-16 -2.97458e-16)
(20 1.27578e-15 3.45011e-16)
(20 4.98461e-16 5.69942e-16)
(20 3.58382e-16 -1.79402e-16)
(20 8.54657e-16 -3.36561e-17)
(20 -1.09943e-15 -3.03189e-16)
(20 -6.33343e-16 -2.85126e-16)
(20 -7.81045e-16 -3.29153e-17)
(20 -1.32809e-15 9.59096e-17)
(20 -1.92442e-16 2.26544e-16)
(20 -2.19015e-16 4.63091e-16)
(20 1.39548e-15 3.69889e-16)
(20 1.10494e-15 -4.04674e-16)
(20 3.61615e-16 -1.17371e-15)
(20 -5.23405e-16 1.70112e-16)
(20 -8.39973e-16 1.17777e-16)
(20 -1.07663e-15 -2.35193e-16)
(20 5.62546e-17 -2.18246e-16)
(20 -5.67385e-16 -2.02288e-16)
(20 1.60392e-16 3.6175e-18)
(20 9.32041e-16 4.01116e-16)
(20 -1.41674e-16 1.93611e-16)
(20 -6.41121e-16 -2.85182e-17)
(20 -4.44042e-16 -2.44226e-17)
(20 9.38083e-16 2.78877e-16)
(20 9.31132e-16 7.86719e-18)
(20 8.70977e-16 -1.72073e-16)
(20 3.54913e-16 1.48057e-17)
(20 -2.4599e-17 1.36853e-17)
(20 -9.23219e-16 3.58904e-16)
(20 1.04407e-16 3.55654e-16)
(20 6.26092e-16 4.76624e-17)
(20 7.45126e-16 -1.96725e-16)
(20 2.5514e-16 1.58994e-16)
(20 -6.13907e-16 1.63691e-16)
(20 -9.83141e-16 4.5466e-17)
(20 2.16812e-16 2.10216e-16)
(20 -9.18957e-17 6.38934e-16)
(20 -6.16422e-16 3.8841e-16)
(20 9.06743e-17 -1.1855e-16)
(20 2.41421e-16 -4.16133e-17)
(20 9.08942e-16 -1.62181e-17)
(20 4.97297e-16 -9.88208e-17)
(20 -5.55007e-16 3.53903e-18)
(20 6.06613e-16 2.58599e-16)
(20 3.48717e-16 -2.38189e-16)
(20 -7.83441e-16 -4.47752e-17)
(20 -1.60629e-15 1.86562e-16)
(20 -6.6488e-16 -5.24585e-17)
(20 1.04719e-15 2.39941e-16)
(20 1.08925e-17 -1.70289e-16)
(20 -2.49963e-17 -1.9587e-16)
(20 -9.33222e-16 4.73885e-16)
(20 -8.73059e-16 8.71714e-17)
(20 9.86009e-17 1.73066e-16)
(20 -4.04565e-16 5.24632e-16)
(20 -2.92896e-16 2.72323e-16)
(20 1.06159e-15 -2.2581e-18)
(20 9.50043e-16 -7.07342e-16)
(20 3.22706e-16 2.20227e-16)
(20 2.0683e-16 2.847e-16)
(20 1.17139e-15 -1.90759e-17)
(20 8.08968e-16 5.70767e-16)
(20 8.14122e-17 4.61744e-17)
(20 1.58488e-16 -5.56086e-17)
(20 -1.46293e-15 3.04326e-16)
(20 -4.9934e-16 -5.38473e-16)
(20 -1.06818e-15 -1.06448e-16)
(20 -6.53072e-16 1.66843e-16)
(20 1.15109e-15 3.08754e-16)
(20 7.03747e-16 -1.60907e-16)
(20 1.49706e-15 3.94185e-17)
(20 1.37529e-15 -3.82523e-16)
(20 3.72375e-18 -6.13706e-16)
(20 -3.57389e-16 2.11858e-16)
(20 -5.84157e-16 2.75492e-16)
(20 -5.55723e-16 2.93218e-16)
(20 -5.40521e-16 -9.65921e-17)
(20 -1.11845e-15 -2.18137e-16)
(20 -1.00055e-15 -2.83488e-16)
(20 6.59429e-16 -3.53854e-16)
(20 5.31615e-16 4.11302e-16)
(20 -4.39608e-16 3.19544e-16)
(20 -5.73861e-16 9.64121e-17)
(20 1.03826e-15 1.81425e-16)
(20 1.04236e-15 1.41535e-16)
(20 8.99444e-16 -1.71462e-16)
(20 1.17758e-15 -1.62374e-16)
(20 2.30152e-16 -3.53059e-16)
(20 -8.87581e-16 -1.04516e-17)
(20 7.88741e-17 2.29435e-16)
(20 1.52557e-16 -8.94433e-17)
(20 2.61235e-17 -1.00127e-16)
(20 1.17192e-16 1.20486e-16)
(20 -7.16229e-17 -2.71815e-17)
(20 -6.47667e-16 -8.41447e-17)
(20 -5.39966e-16 7.23445e-17)
(20 -1.25013e-15 1.13335e-16)
(20 -7.84047e-16 -1.64898e-17)
(20 -3.50691e-16 6.3937e-17)
(20 5.01305e-16 -4.6801e-17)
(20 1.99844e-15 -3.07382e-16)
(20 9.73498e-16 -9.99846e-17)
(20 -5.61615e-16 2.26552e-16)
(20 3.47072e-16 7.0095e-17)
(20 5.67624e-16 -1.72856e-16)
(20 -7.81301e-16 6.15235e-17)
(20 -1.08657e-15 4.13832e-16)
(20 -4.6819e-16 5.01044e-16)
(20 7.54258e-16 9.89568e-17)
(20 5.08044e-16 -8.85134e-17)
(20 -1.0948e-15 -2.35992e-16)
(20 -6.5748e-16 2.47214e-16)
(20 -6.85348e-16 1.00105e-16)
(20 2.30653e-16 1.44209e-16)
(20 -1.32935e-16 -1.42039e-16)
(20 2.95193e-16 4.77267e-16)
(20 -3.04412e-16 -4.68201e-16)
(20 -7.5956e-16 -6.73989e-16)
(20 -5.20175e-16 5.67201e-16)
(20 1.21014e-16 2.42949e-16)
(20 4.46705e-16 -3.8826e-16)
(20 7.61842e-16 -3.13776e-16)
(20 3.22449e-16 3.56458e-16)
(20 -4.8636e-16 1.69327e-16)
(20 -6.56968e-16 6.64575e-16)
(20 -5.89991e-16 -3.33692e-16)
(20 -4.49682e-16 5.67834e-17)
(20 2.43569e-16 -4.67246e-16)
(20 8.31583e-16 -1.5828e-16)
(20 8.52133e-16 -1.24378e-16)
(20 8.18746e-16 1.09254e-16)
(20 7.59189e-16 -1.73828e-16)
(20 4.98295e-16 -1.72318e-16)
(20 1.127e-16 1.91416e-16)
(20 -3.17403e-16 8.33814e-17)
(20 -9.447e-16 -2.26979e-16)
(20 -8.72866e-16 9.11101e-17)
(20 -8.86322e-16 2.98917e-17)
(20 -1.21908e-15 -1.49341e-16)
(20 -9.71855e-18 -2.20385e-16)
(20 7.24874e-16 4.40663e-16)
(20 8.02158e-16 2.21967e-16)
(20 6.20715e-16 -1.18885e-16)
(20 8.68018e-16 -2.16367e-16)
(20 7.31594e-16 1.01303e-16)
(20 -1.41987e-16 7.08403e-18)
(20 6.48536e-16 -5.38934e-16)
(20 8.48158e-16 -5.66042e-17)
(20 -3.50752e-16 1.43213e-16)
(20 -8.47292e-16 3.28025e-16)
(20 -3.88862e-16 -5.45783e-17)
(20 6.84017e-17 -3.37093e-16)
(20 1.53383e-16 2.79467e-17)
(20 6.49125e-17 -1.08184e-16)
(20 -7.47564e-16 -2.72955e-16)
(20 -1.21281e-15 1.0115e-16)
(20 -1.33146e-15 9.19393e-16)
(20 -6.80941e-16 1.37994e-16)
(20 -5.1401e-16 7.24423e-17)
(20 3.53576e-16 -2.22053e-16)
(20 9.46045e-16 -1.37409e-16)
(20 7.96112e-16 -2.28138e-16)
(20 7.65694e-16 5.56203e-16)
(20 4.20738e-16 4.29098e-16)
(20 -2.5804e-16 -3.35577e-16)
(20 -3.11769e-16 -6.44677e-16)
(20 -4.0044e-16 -2.29645e-16)
(20 -8.27286e-16 2.09718e-16)
(20 -2.76212e-16 -4.34633e-16)
(20 8.53958e-16 -3.01683e-16)
(20 9.63353e-17 3.49144e-16)
(20 -1.21174e-15 6.88097e-17)
(20 -7.43674e-16 2.56487e-17)
(20 5.64833e-16 -4.57375e-16)
(20 -6.07236e-16 3.17451e-16)
(20 4.35571e-16 6.99808e-16)
(20 -4.13067e-17 2.06511e-17)
(20 -1.38351e-15 -3.45713e-16)
(20 -1.08087e-15 3.67894e-16)
(20 2.70607e-16 1.64392e-17)
(20 8.99188e-16 -1.22843e-16)
(20 5.22625e-16 -2.32223e-16)
(20 8.21345e-16 1.11509e-16)
(20 -8.78116e-16 3.14039e-16)
(20 -2.35429e-16 6.28577e-16)
(20 -9.64303e-16 -4.14736e-17)
(20 1.23561e-16 -3.60505e-16)
(20 -4.14118e-17 -6.27394e-16)
(20 5.81448e-16 -1.4905e-16)
(20 1.40285e-15 -6.81792e-17)
(20 7.8471e-16 -1.0336e-16)
(20 4.67606e-16 7.23067e-17)
(20 -9.59106e-16 -3.83764e-16)
(20 -3.13669e-16 2.00559e-16)
(20 2.23878e-16 -4.89855e-18)
(20 -4.74095e-16 1.3118e-16)
(20 -1.9364e-16 3.67936e-16)
(20 -4.24362e-16 2.2308e-16)
(20 -9.5084e-16 -4.24384e-17)
(20 -4.46122e-16 -1.26681e-16)
(20 4.5616e-16 1.99236e-16)
(20 1.45877e-15 7.40067e-17)
(20 8.88795e-16 -1.32207e-16)
(20 3.38202e-16 -3.11714e-16)
(20 2.04698e-16 6.73456e-19)
(20 -5.99735e-16 2.12502e-16)
(20 -4.56443e-16 -6.18964e-18)
(20 1.2031e-15 -3.03243e-16)
(20 8.58512e-16 -1.23847e-16)
(20 -7.07701e-16 2.8331e-16)
(20 -7.42901e-17 -2.55189e-16)
(20 -1.68968e-17 -1.4859e-16)
(20 -4.24289e-16 6.41725e-17)
(20 -6.33797e-16 -3.62083e-16)
(20 -5.21013e-16 -1.41325e-16)
(20 -9.89144e-17 3.75601e-16)
(20 -1.33562e-16 2.64291e-16)
(20 3.80031e-16 -1.22748e-16)
(20 -1.31803e-16 1.47961e-16)
(20 1.44601e-17 -1.6867e-16)
(20 2.39917e-16 3.24364e-16)
(20 -6.25476e-16 -2.96576e-16)
(20 6.85461e-16 -2.13871e-16)
(20 1.04757e-15 -2.53391e-16)
(20 -2.14621e-16 -2.80917e-17)
(20 -3.67535e-16 8.38248e-17)
(20 -5.86108e-17 2.00823e-16)
(20 -6.16016e-16 4.24846e-16)
(20 -5.5611e-16 2.15205e-16)
(20 1.07283e-15 1.22687e-17)
(20 -6.1823e-16 1.55736e-16)
(20 3.53883e-16 7.11235e-16)
(20 2.83839e-16 -9.7834e-17)
(20 -5.93592e-16 -1.66531e-16)
(20 -6.26314e-16 4.01442e-16)
(20 8.04558e-16 6.3318e-16)
(20 -1.93375e-15 -1.60246e-16)
(20 -7.45837e-17 6.81917e-16)
(20 8.98272e-16 3.71683e-16)
(20 4.06037e-17 -4.677e-16)
(20 1.58979e-16 -8.02976e-16)
(20 1.12868e-16 -3.16591e-16)
(20 -7.42669e-18 -9.14128e-17)
(20 -2.28934e-16 7.28093e-16)
(20 4.31047e-16 1.00017e-15)
(20 -1.24043e-16 2.15559e-16)
(20 -7.51272e-16 -2.68637e-16)
(20 1.05151e-16 -1.26996e-16)
(20 9.13223e-16 -5.39653e-16)
(20 1.65196e-15 -3.88816e-16)
(20 1.14943e-15 6.55395e-17)
(20 -4.03136e-17 1.13857e-17)
(20 -1.41464e-15 2.88537e-16)
(20 1.9827e-16 8.24362e-16)
(20 -1.56116e-17 -6.35127e-16)
(20 -3.75652e-16 -4.82296e-16)
(20 -2.8551e-16 3.49196e-16)
(20 -3.35408e-16 4.25841e-16)
(20 -5.59441e-16 -1.04633e-16)
(20 -2.39767e-16 -2.84919e-16)
(20 1.53278e-16 -2.07291e-17)
(20 1.06093e-15 -1.0994e-16)
(20 8.11082e-16 1.10518e-16)
(20 7.57041e-17 1.85821e-17)
(20 9.25861e-16 2.08908e-16)
(20 2.95465e-16 3.69152e-16)
(20 -2.23472e-16 2.41891e-16)
(20 5.16394e-16 -4.32257e-16)
(20 3.64704e-16 -1.56107e-16)
(20 -8.64478e-16 -3.22488e-17)
(20 -6.98188e-16 -5.89337e-16)
(20 -5.02574e-16 -3.22532e-16)
(20 -1.11756e-15 1.60371e-16)
(20 -9.33232e-16 1.01498e-16)
(20 2.54098e-16 -6.38061e-17)
(20 6.11667e-16 -3.70532e-16)
(20 8.24379e-16 6.18864e-17)
(20 3.78617e-16 -4.91254e-17)
(20 -3.71381e-16 1.50092e-16)
(20 -9.86718e-17 5.30354e-17)
(20 7.89379e-16 4.63809e-17)
(20 3.36462e-16 4.47675e-16)
(20 -4.91277e-16 -2.50243e-16)
(20 -1.83801e-16 -1.00928e-15)
(20 -8.01417e-16 -3.93554e-16)
(20 -5.25056e-16 -1.47215e-16)
(20 7.74977e-17 2.07552e-16)
(20 7.69388e-18 2.98349e-16)
(20 -5.45532e-16 -3.63534e-16)
(20 2.51804e-16 3.49863e-16)
(20 1.17062e-15 -9.50875e-18)
(20 5.07605e-16 -1.34711e-16)
(20 7.03954e-16 1.86627e-16)
(20 -7.51434e-16 -2.63966e-16)
(20 5.33973e-16 4.24978e-16)
(20 -7.42706e-16 -2.36636e-16)
(20 9.60637e-16 3.95086e-16)
(20 4.16205e-16 6.35028e-16)
(20 1.09097e-15 -5.1812e-16)
(20 -6.59775e-16 -2.76032e-16)
(20 -1.05593e-15 -4.11427e-16)
(20 -3.84913e-16 -9.79307e-17)
(20 -4.24837e-16 5.32425e-16)
(20 1.59976e-15 7.75283e-16)
(20 1.04288e-15 4.57928e-16)
(20 5.09075e-16 -2.00977e-16)
(20 -6.60757e-16 8.7778e-17)
(20 5.38941e-16 -3.35918e-16)
(20 7.55015e-16 -4.87823e-16)
(20 8.99536e-16 -5.92083e-17)
(20 7.32779e-16 -1.61665e-16)
(20 -2.73285e-16 -1.3813e-16)
(20 -2.01374e-16 3.22999e-16)
(20 2.6232e-16 4.62653e-16)
(20 -7.92992e-16 -1.0989e-16)
(20 -6.76987e-16 -3.1892e-16)
(20 -1.69655e-16 4.89331e-16)
(20 -1.77683e-16 5.31625e-16)
(20 -8.55501e-17 -3.16483e-16)
(20 -4.31841e-16 -5.03376e-16)
(20 -5.48205e-16 -1.02809e-16)
(20 5.97479e-16 2.14951e-17)
(20 9.04064e-16 1.96311e-16)
(20 3.65512e-16 -7.02646e-17)
(20 1.55449e-15 -1.41852e-16)
(20 1.116e-15 4.47382e-16)
(20 3.51216e-16 1.55801e-16)
(20 1.34359e-16 -1.69846e-16)
(20 -1.18312e-16 1.26544e-16)
(20 -1.50043e-15 1.54722e-16)
(20 -1.92379e-15 -2.78767e-16)
(20 -1.06524e-15 -1.41584e-16)
(20 -6.69787e-16 1.71545e-16)
(20 -4.62757e-16 4.90335e-18)
(20 -2.77698e-16 -3.96546e-16)
(20 -1.85108e-16 -5.68589e-16)
(20 1.24843e-15 -2.08474e-16)
(20 -1.93847e-16 2.5254e-16)
(20 -1.17589e-15 1.41129e-16)
(20 -5.53572e-16 8.28576e-17)
(20 2.36987e-16 3.66442e-17)
(20 1.83878e-15 -3.9195e-16)
(20 8.69847e-16 -2.45763e-17)
(20 -3.93456e-16 -3.1805e-16)
(20 -1.55662e-15 -1.20576e-16)
(20 -1.02081e-15 -7.16681e-17)
(20 8.97862e-16 6.67404e-16)
(20 8.79403e-17 4.14415e-16)
(20 7.52959e-16 -3.71914e-16)
(20 1.05518e-16 5.06449e-16)
(20 5.61106e-16 -7.74531e-17)
(20 1.14965e-16 3.11299e-16)
(20 -4.82292e-16 1.49527e-16)
(20 7.85046e-17 -1.7468e-16)
(20 -4.16574e-16 -1.42656e-16)
(20 -7.69977e-16 -2.12704e-16)
(20 9.35117e-16 1.51474e-16)
(20 3.76645e-16 -1.45158e-16)
(20 -3.43061e-16 -6.42709e-16)
(20 -8.38608e-16 3.28283e-17)
(20 -4.02299e-16 -4.9528e-16)
(20 6.27832e-17 -1.46048e-16)
(20 1.30776e-16 3.22037e-16)
(20 1.94221e-15 2.12226e-16)
(20 1.32063e-15 4.73221e-16)
(20 5.38233e-16 6.83685e-17)
(20 2.20945e-16 2.40333e-16)
(20 1.09426e-15 -6.04758e-17)
(20 1.3171e-15 -9.37434e-17)
(20 1.07223e-16 1.49789e-17)
(20 1.35452e-17 -6.55542e-16)
(20 -6.71688e-17 -2.66034e-17)
(20 -3.76889e-16 4.27959e-16)
(20 -2.88436e-16 2.47969e-16)
(20 -2.36928e-16 1.62386e-16)
(20 4.54976e-17 -5.96697e-16)
(20 5.6738e-17 -1.19521e-16)
(20 4.26599e-17 3.46664e-16)
(20 -2.56164e-17 -3.71486e-16)
(20 -7.53763e-16 -2.8743e-16)
(20 -2.61312e-16 4.18217e-16)
(20 1.80997e-16 1.57916e-16)
(20 -1.79236e-16 5.21727e-17)
(20 -2.38026e-16 1.19961e-16)
(20 5.88622e-16 -7.06244e-17)
(20 8.92085e-16 1.76054e-16)
(20 3.04648e-16 -2.24014e-16)
(20 5.56402e-17 -3.44958e-16)
(20 2.05904e-16 2.19529e-16)
(20 -7.96156e-16 3.02366e-16)
(20 -1.04231e-15 -6.14077e-18)
(20 -5.30002e-16 -1.29612e-16)
(20 -2.84408e-16 9.95873e-17)
(20 -4.27568e-16 2.58741e-16)
(20 -9.5221e-16 -1.37429e-16)
(20 -7.78142e-16 -4.4198e-16)
(20 -1.47237e-16 1.25969e-16)
(20 -6.45129e-16 3.00567e-16)
(20 -7.64691e-16 1.57241e-16)
(20 1.50421e-16 5.00006e-17)
(20 9.4769e-16 5.38189e-16)
(20 5.79244e-16 -5.0945e-16)
(20 8.33746e-16 -2.00581e-16)
(20 -1.20472e-16 -4.55532e-16)
(20 -7.67504e-16 -5.28051e-16)
(20 -7.88571e-16 9.0699e-17)
(20 1.04238e-15 2.9394e-16)
(20 7.39506e-16 4.60315e-16)
(20 -1.57278e-15 -6.29442e-17)
(20 -7.48512e-16 -5.36592e-17)
(20 -2.73732e-16 1.13506e-16)
(20 -3.33728e-16 -2.96773e-16)
(20 -5.62327e-16 3.722e-16)
(20 1.12701e-15 -1.1981e-17)
(20 -3.33048e-16 -1.05833e-16)
(20 8.02038e-16 1.33503e-17)
(20 -2.77682e-17 1.77392e-16)
(20 2.94096e-16 -1.44751e-16)
(20 -2.21895e-16 -2.61165e-16)
(20 2.84771e-16 2.73568e-16)
(20 3.94711e-17 -2.65181e-16)
(20 2.09627e-16 6.05958e-16)
(20 -1.11646e-15 4.70497e-16)
(20 2.96851e-16 -2.31135e-16)
(20 1.44408e-15 2.04788e-17)
(20 1.40183e-15 -1.51507e-16)
(20 1.1487e-15 3.42265e-16)
(20 8.8827e-16 -3.80649e-16)
(20 1.24973e-15 6.32537e-18)
(20 9.32657e-16 1.02659e-16)
(20 -6.41424e-16 -2.82675e-16)
(20 -4.33534e-16 -1.64386e-16)
(20 -9.45568e-16 2.67227e-16)
(20 -2.43846e-16 3.61568e-16)
(20 -4.39407e-16 -5.34977e-16)
(20 4.2776e-17 -5.72609e-16)
(20 -6.8377e-17 -1.9614e-17)
(20 1.14115e-16 3.16773e-16)
(20 -7.16462e-16 -3.12968e-16)
(20 -8.24676e-16 5.51825e-18)
(20 7.97391e-16 8.23709e-17)
(20 1.69607e-16 -8.42471e-18)
(20 -5.57898e-16 -2.61094e-17)
(20 3.27612e-17 1.92496e-17)
(20 1.12659e-17 -2.8488e-16)
(20 -1.05591e-16 5.61469e-18)
(20 -4.34009e-16 1.28275e-16)
(20 -8.86113e-16 1.81804e-17)
(20 -1.42977e-16 3.61897e-16)
(20 5.0557e-16 2.33898e-16)
(20 5.09648e-16 -2.55032e-16)
(20 -5.50893e-16 -4.25247e-16)
(20 -6.27936e-16 -2.13505e-16)
(20 -2.65724e-16 1.3499e-16)
(20 -8.48532e-16 1.98368e-17)
(20 -3.76236e-16 2.10469e-16)
(20 3.79657e-17 2.05993e-16)
(20 -1.92908e-16 2.84544e-16)
(20 4.69849e-16 2.69704e-16)
(20 3.72087e-16 -5.60688e-16)
(20 1.9763e-15 -6.58859e-17)
(20 -5.00029e-17 3.3013e-16)
(20 -4.68574e-16 -3.75505e-16)
(20 -8.31851e-16 -7.00479e-16)
(20 -9.73213e-16 -3.04494e-16)
(20 -8.74812e-16 7.2835e-16)
(20 -4.59773e-16 -2.00011e-16)
(20 1.31822e-15 -1.6921e-16)
(20 -3.39855e-16 4.8962e-16)
(20 -2.02909e-15 2.97425e-16)
(20 2.28902e-16 -1.91293e-16)
(20 3.15776e-16 1.98395e-16)
(20 1.59203e-16 -4.74921e-17)
(20 1.91116e-16 -2.20059e-16)
(20 2.14054e-16 3.22089e-17)
(20 -6.98755e-17 -1.63836e-16)
(20 1.95558e-16 5.48125e-17)
(20 2.4533e-16 -8.09155e-16)
(20 2.1961e-16 -1.29621e-16)
(20 3.95074e-16 5.93983e-17)
(20 -1.37498e-16 3.2791e-17)
(20 3.87282e-16 5.88945e-16)
(20 -4.84481e-16 5.01083e-16)
(20 -6.15992e-16 7.0943e-17)
(20 6.1739e-16 3.26442e-17)
(20 1.77177e-15 -4.18012e-16)
(20 1.6603e-15 1.88772e-16)
(20 1.49438e-16 3.94714e-16)
(20 4.07245e-16 -7.33116e-16)
(20 5.97729e-16 -4.90655e-16)
(20 -3.08931e-16 2.68667e-16)
(20 -1.26345e-15 3.78738e-16)
(20 -1.10856e-15 5.73324e-16)
(20 2.02265e-17 -6.00603e-17)
(20 -1.6566e-16 -2.98219e-16)
(20 -7.79095e-17 -1.16286e-17)
(20 4.33633e-16 3.54306e-17)
(20 6.96429e-16 4.24034e-16)
(20 -1.02863e-16 -3.21238e-16)
(20 1.81004e-16 4.71975e-16)
(20 7.82757e-16 -2.03238e-16)
(20 4.92655e-17 -1.72956e-16)
(20 5.48786e-16 1.66214e-16)
(20 1.17558e-15 1.34527e-16)
(20 -1.14368e-16 -3.40833e-16)
(20 -9.61369e-16 -1.79761e-16)
(20 -5.91139e-16 7.51703e-17)
(20 -7.08105e-16 3.62127e-16)
(20 -5.90774e-17 5.13978e-16)
(20 1.16671e-15 -1.04684e-16)
(20 9.90946e-16 -5.34611e-16)
(20 -1.39401e-15 -2.23205e-16)
(20 -1.34298e-15 1.70917e-16)
(20 -5.96775e-16 3.00632e-16)
(20 -1.05434e-15 -2.29711e-16)
(20 -3.8542e-16 -7.57059e-17)
(20 2.58817e-16 4.11914e-16)
(20 2.89142e-16 5.82774e-16)
(20 1.15536e-15 -1.08012e-16)
(20 -3.5127e-17 -5.32917e-16)
(20 1.44835e-15 -7.23913e-16)
(20 1.46606e-16 1.89231e-16)
(20 -2.43662e-16 -8.40591e-17)
(20 -1.11053e-15 -4.35045e-16)
(20 -1.2773e-15 -1.24781e-16)
(20 -2.14094e-16 4.86177e-16)
(20 -6.69758e-16 -2.53349e-16)
(20 9.25027e-16 -9.51633e-17)
(20 5.85817e-16 -5.62961e-17)
(20 -4.60505e-16 -2.22778e-16)
(20 7.42287e-16 -2.05426e-16)
(20 -1.97566e-15 5.66335e-16)
(20 8.13384e-17 2.46203e-16)
(20 9.57335e-16 7.95486e-17)
(20 1.68022e-16 3.32581e-17)
(20 2.28342e-16 -2.93034e-16)
(20 -1.04978e-15 -2.93826e-16)
(20 -1.03464e-15 -4.40604e-16)
(20 4.96812e-16 8.1336e-17)
(20 -5.38168e-16 1.48757e-16)
(20 -1.28207e-17 1.93809e-16)
(20 -6.86324e-17 2.34048e-16)
(20 4.2361e-16 7.1552e-17)
(20 -2.77244e-17 1.02371e-16)
(20 1.08247e-15 3.27056e-16)
(20 1.03444e-15 -2.55389e-16)
(20 9.86806e-16 -1.24021e-16)
(20 8.30712e-16 1.14569e-16)
(20 -1.07967e-16 -4.99304e-16)
(20 -1.07634e-15 -1.68767e-16)
(20 -5.61871e-16 1.40208e-16)
(20 -8.41874e-16 9.75711e-17)
(20 9.96768e-16 7.92879e-16)
(20 6.08487e-16 -5.15219e-16)
(20 -4.94511e-16 -3.33665e-16)
(20 -1.08245e-15 -5.35038e-17)
(20 2.05655e-16 -4.42118e-16)
(20 1.71099e-15 1.17785e-16)
(20 1.355e-15 -9.50819e-17)
(20 1.14162e-15 -3.12038e-17)
(20 1.03695e-16 -2.34516e-16)
(20 -6.73919e-16 2.06096e-16)
(20 8.09163e-16 -5.24449e-17)
(20 1.5223e-15 -1.50138e-16)
(20 1.97028e-16 -3.38319e-16)
(20 -4.08025e-16 3.56609e-16)
(20 -4.34156e-16 4.92621e-16)
(20 6.58976e-16 2.01869e-16)
(20 6.51794e-16 8.11669e-17)
(20 6.06574e-16 -7.54409e-16)
(20 -3.79744e-16 -7.49501e-16)
(20 -1.48288e-15 8.10846e-17)
(20 -2.39061e-16 7.23437e-16)
(20 8.96199e-17 5.64319e-16)
(20 -1.34409e-15 -7.90576e-17)
(20 -1.23231e-15 3.36137e-17)
(20 4.03615e-17 8.55536e-16)
(20 1.8885e-16 3.76653e-16)
(20 7.07396e-16 -1.0953e-16)
(20 1.97742e-17 -1.38105e-16)
(20 3.05629e-16 -5.84422e-16)
(20 5.46379e-16 -4.95349e-17)
(20 -1.66395e-17 2.85303e-16)
(20 -6.19157e-16 -2.21084e-17)
(20 -1.056e-15 -1.58283e-16)
(20 -2.2584e-16 -1.19865e-16)
(20 3.18968e-16 -2.06725e-16)
(20 9.37646e-16 -2.05385e-16)
(20 -4.77819e-16 2.74503e-16)
(20 -9.18792e-17 -4.98633e-16)
(20 1.11892e-16 4.01261e-17)
(20 -5.2208e-16 6.95164e-17)
(20 7.71023e-16 2.90337e-16)
(20 9.0109e-16 -3.3588e-16)
(20 4.21117e-16 1.44936e-16)
(20 -3.2091e-16 -2.44828e-16)
(20 2.60858e-16 -5.51725e-16)
(20 -1.65408e-16 1.01505e-16)
(20 4.84039e-16 -3.03448e-16)
(20 1.0795e-17 2.44228e-16)
(20 5.0974e-16 1.70273e-16)
(20 -1.3719e-16 5.00573e-16)
(20 6.97484e-16 2.06383e-16)
(20 2.86122e-16 -4.5385e-16)
(20 6.35539e-16 -2.07685e-16)
(20 -4.55949e-16 -3.38214e-16)
(20 -3.24114e-16 -1.81728e-16)
(20 5.19209e-16 1.06788e-16)
(20 2.19823e-16 1.18258e-17)
(20 -2.7468e-16 -2.17953e-17)
(20 -1.3686e-16 2.14148e-16)
(20 -2.40214e-16 3.31387e-17)
(20 1.49635e-15 -2.8836e-17)
(20 -6.84035e-17 -1.54357e-16)
(20 -9.46748e-16 3.6786e-16)
(20 -1.31116e-15 4.18656e-16)
(20 -5.32683e-16 -6.56812e-16)
(20 8.12452e-16 -5.69448e-16)
(20 1.10066e-15 -8.50783e-17)
(20 5.59615e-16 -4.65343e-16)
(20 5.92751e-16 -7.20142e-17)
(20 6.04333e-16 7.7694e-16)
(20 7.61647e-16 4.11561e-16)
(20 -4.42123e-17 -5.19668e-16)
(20 -2.36127e-16 -4.18277e-16)
(20 5.17661e-16 5.81536e-16)
(20 4.08695e-16 5.94311e-16)
(20 9.93667e-16 -3.04427e-16)
(20 8.19111e-18 -6.62717e-16)
(20 -1.39015e-15 -5.50788e-16)
(20 -1.09315e-15 -6.76723e-16)
(20 -5.4196e-16 1.60662e-16)
(20 8.14136e-16 1.99976e-16)
(20 4.26577e-16 5.30858e-17)
(20 -2.92367e-16 5.52672e-16)
(20 -1.06678e-15 8.39408e-16)
(20 9.66618e-16 4.96596e-16)
(20 9.32581e-17 3.83746e-16)
(20 5.22504e-17 -1.40678e-16)
(20 -3.12013e-17 -3.22428e-16)
(20 -8.96661e-16 -5.13819e-16)
(20 2.05816e-17 -1.59948e-16)
(20 -1.09818e-16 2.49573e-16)
(20 4.27443e-16 1.59702e-16)
(20 -4.50277e-16 -1.45356e-16)
(20 -3.40635e-16 -9.02458e-17)
(20 2.13208e-16 -4.50356e-16)
(20 -1.85732e-16 -6.32045e-16)
(20 -1.83863e-16 2.3289e-16)
(20 3.14592e-16 -6.54821e-16)
(20 1.08078e-15 2.77047e-16)
(20 4.57392e-16 -4.80253e-16)
(20 -8.78965e-16 -9.75734e-17)
(20 -4.16728e-16 4.72235e-16)
(20 -3.52851e-16 2.19727e-17)
(20 5.10812e-16 6.02736e-16)
(20 5.8128e-16 -2.95242e-16)
(20 -5.60522e-16 1.38338e-16)
(20 -3.89431e-16 2.68706e-16)
(20 8.8875e-17 -1.44913e-16)
(20 -3.52011e-16 1.1786e-17)
(20 -6.31065e-16 3.82781e-16)
(20 7.55903e-16 -1.83128e-16)
(20 5.29787e-16 -9.42285e-17)
(20 -2.75465e-17 -4.37785e-16)
(20 -6.60276e-16 -2.96164e-16)
(20 -2.9635e-16 2.94713e-16)
(20 1.76065e-16 -2.02688e-16)
(20 -6.02083e-17 -2.85384e-16)
(20 -3.85912e-16 -2.88724e-16)
(20 2.99253e-16 2.28847e-16)
(20 1.29941e-15 7.48728e-16)
(20 9.09731e-16 7.319e-17)
(20 -8.11067e-16 1.24187e-16)
(20 -5.07132e-16 5.14067e-16)
(20 -5.24277e-16 3.86485e-16)
(20 -7.75902e-16 -4.40417e-16)
(20 -1.3925e-15 -4.99042e-16)
(20 -2.1904e-16 -9.31232e-17)
(20 4.07917e-16 -7.24205e-17)
(20 9.89173e-16 -7.73687e-17)
(20 7.06335e-16 -8.29774e-17)
(20 7.71732e-16 -2.3126e-16)
(20 -3.31192e-16 5.4443e-17)
(20 -2.10296e-16 3.40555e-16)
(20 6.26534e-16 1.01581e-16)
(20 9.16403e-16 -3.25602e-16)
(20 2.0994e-16 -5.21329e-16)
(20 -7.79654e-16 -3.01383e-16)
(20 -1.21544e-15 3.67232e-16)
(20 -6.918e-16 -1.67522e-16)
(20 -2.68246e-17 7.02657e-17)
(20 7.01558e-17 -1.82291e-16)
(20 -5.78902e-16 -2.79554e-16)
(20 -1.18628e-16 2.77828e-16)
(20 -5.74595e-16 6.93956e-16)
(20 1.15847e-15 4.63212e-16)
(20 7.4382e-16 2.55863e-16)
(20 4.26324e-16 -2.28928e-16)
(20 4.82377e-16 4.77702e-17)
(20 -1.10909e-15 1.58161e-16)
(20 -1.03455e-15 -7.21169e-18)
(20 3.38939e-16 -3.76816e-16)
(20 8.14773e-16 -8.69781e-17)
(20 -3.0144e-16 -2.02426e-16)
(20 -8.54905e-16 -3.45889e-16)
(20 -7.5567e-16 -1.73594e-16)
(20 3.67056e-16 -3.78436e-16)
(20 -1.48654e-16 8.96941e-18)
(20 1.00688e-17 -4.97435e-16)
(20 2.24351e-16 1.15258e-16)
(20 9.45506e-17 2.14676e-16)
(20 6.29094e-16 5.57719e-16)
(20 -6.51988e-16 8.34303e-17)
(20 1.0992e-15 2.09281e-16)
(20 1.41762e-15 -4.23159e-16)
(20 -9.18432e-16 3.10287e-16)
(20 -5.89938e-16 2.40462e-16)
(20 -5.55177e-17 -1.07286e-16)
(20 2.72532e-16 -5.37071e-17)
(20 6.35524e-17 4.27666e-16)
(20 -4.37742e-16 6.49268e-16)
(20 -7.39953e-16 1.73352e-16)
(20 5.49209e-16 -1.8517e-16)
(20 1.61759e-16 -4.42871e-16)
(20 -1.12481e-17 -4.05436e-16)
(20 -5.6223e-16 -2.35592e-17)
(20 -5.02467e-16 -3.45406e-16)
(20 -6.6426e-16 1.05421e-16)
(20 -7.12704e-16 3.02179e-16)
(20 1.65145e-16 2.10977e-16)
(20 2.1358e-15 3.19911e-16)
(20 8.85443e-16 2.85763e-16)
(20 -1.14275e-16 3.75336e-16)
(20 -1.19202e-15 2.49312e-16)
(20 -7.05351e-16 1.12109e-16)
(20 -7.74607e-16 -6.12917e-16)
(20 -8.18509e-16 4.90431e-16)
(20 8.4864e-16 4.40592e-16)
(20 1.06876e-15 -1.96798e-16)
(20 7.01161e-16 -4.8967e-17)
(20 -5.86012e-16 1.6222e-16)
(20 -1.52587e-16 -9.2402e-17)
(20 1.41975e-16 -1.18937e-16)
(20 9.7517e-16 5.5457e-17)
(20 9.82219e-16 -1.13959e-16)
(20 6.61703e-16 -2.70411e-16)
(20 -4.55399e-16 -2.31415e-16)
(20 -6.27747e-16 -6.03804e-17)
(20 -5.63451e-16 3.8712e-17)
(20 -7.25908e-16 -3.54503e-16)
(20 -1.28931e-16 -3.42669e-18)
(20 -6.03849e-17 -1.82374e-16)
(20 -5.25145e-16 7.34888e-17)
(20 -2.79349e-16 3.24073e-16)
(20 -2.31405e-16 4.36393e-16)
(20 7.36434e-16 2.46712e-16)
(20 1.87453e-15 3.57197e-16)
(20 7.97149e-16 -3.53707e-16)
(20 8.73775e-16 5.88932e-17)
(20 -7.10958e-16 2.5422e-16)
(20 -4.3283e-16 5.15238e-16)
(20 7.82361e-16 -3.8704e-16)
(20 4.88732e-16 -4.04906e-16)
(20 -5.78596e-16 3.19127e-17)
(20 -8.94655e-16 -1.73254e-16)
(20 -1.41297e-15 3.26747e-17)
(20 3.11635e-16 -1.2042e-15)
(20 -9.04835e-16 -3.63389e-16)
(20 1.10677e-15 1.92803e-16)
(20 2.19442e-16 4.14704e-16)
(20 -7.93195e-17 7.50475e-16)
(20 3.12113e-16 9.31106e-16)
(20 8.11756e-16 -5.55792e-16)
(20 3.17959e-16 -7.4309e-16)
(20 1.88677e-16 -2.44925e-16)
(20 -9.41298e-16 -1.66287e-16)
(20 5.75375e-16 -2.41297e-17)
(20 -2.32439e-16 -9.89965e-18)
(20 1.0263e-17 -5.30834e-17)
(20 6.81472e-16 1.26787e-16)
(20 3.86549e-16 1.73893e-16)
(20 -8.61126e-16 5.33628e-16)
(20 -2.70057e-16 -2.47051e-16)
(20 2.37448e-16 2.83055e-16)
(20 3.53038e-16 -1.31223e-16)
(20 -7.12866e-16 7.84635e-17)
(20 -5.5993e-16 -4.5209e-16)
(20 2.95066e-16 2.5676e-16)
(20 -6.53553e-16 2.58518e-16)
(20 3.43569e-16 7.17513e-17)
(20 1.50519e-15 -1.44506e-16)
(20 8.54106e-16 -1.82985e-16)
(20 5.71195e-17 1.64432e-16)
(20 -8.93185e-16 6.32509e-16)
(20 -4.90811e-16 3.63735e-16)
(20 -6.36464e-16 2.76256e-16)
(20 3.3462e-16 3.03916e-16)
(20 8.26821e-16 -7.24161e-17)
(20 4.54231e-16 -4.06456e-16)
(20 5.50846e-16 -1.03979e-16)
(20 7.02724e-16 2.26654e-16)
(20 9.1915e-17 -3.23271e-17)
(20 2.3065e-17 -5.5291e-18)
(20 1.17043e-16 -2.63782e-16)
(20 3.79086e-16 -2.26912e-16)
(20 4.72225e-17 -2.79925e-16)
(20 -3.73481e-16 2.97285e-17)
(20 1.28453e-16 4.85649e-16)
(20 3.77411e-16 2.96518e-16)
(20 -5.19696e-16 -4.75863e-16)
(20 -6.16924e-16 -2.59873e-16)
(20 -4.85167e-16 -5.15602e-17)
(20 -6.31243e-16 2.31961e-16)
(20 -5.86037e-16 1.52359e-16)
(20 6.08683e-17 1.43271e-16)
(20 4.4669e-16 4.54683e-16)
(20 1.61072e-15 1.875e-16)
(20 -3.6983e-16 -5.30812e-16)
(20 2.607e-16 2.66195e-16)
(20 -2.01957e-16 5.67468e-16)
(20 1.86683e-16 -2.44724e-17)
(20 2.19491e-16 -2.90868e-16)
(20 -1.39225e-16 -7.34459e-16)
(20 5.73352e-17 5.11716e-17)
(20 -9.05125e-16 -6.03712e-16)
(20 -8.96271e-16 -2.76364e-16)
(20 -3.69902e-16 -5.75591e-16)
(20 -2.82657e-16 3.06623e-16)
(20 1.04622e-15 2.0012e-16)
(20 2.82033e-16 2.67285e-16)
(20 2.2963e-16 3.39756e-16)
(20 -4.24667e-16 4.37395e-16)
(20 -8.81014e-16 -3.99436e-16)
(20 2.69719e-16 -4.47262e-16)
(20 2.54316e-16 -1.5513e-16)
(20 4.40443e-16 1.7424e-16)
(20 9.59222e-16 -2.22633e-16)
(20 -4.81458e-16 2.10628e-16)
(20 -9.72061e-16 2.16264e-16)
(20 1.30249e-16 2.972e-16)
(20 1.53434e-16 8.0604e-17)
(20 6.66088e-17 3.95621e-16)
(20 -3.10643e-16 -4.51126e-16)
(20 1.18227e-17 -3.96542e-16)
(20 2.62844e-16 -2.88179e-16)
(20 -6.6198e-16 1.24601e-16)
(20 5.61454e-16 3.56039e-16)
(20 5.82548e-16 -2.52509e-16)
(20 -5.76691e-16 5.78737e-16)
(20 3.40484e-16 1.05338e-16)
(20 8.20947e-16 -4.52474e-16)
(20 1.73236e-18 -3.05667e-16)
(20 -7.04658e-16 3.39887e-16)
(20 1.73743e-16 6.08724e-16)
(20 5.05388e-16 2.99281e-16)
(20 -2.30409e-16 8.25687e-17)
(20 -6.89864e-17 1.1843e-17)
(20 -6.54219e-16 7.77566e-17)
(20 -5.14484e-16 -1.57036e-16)
(20 2.07095e-16 -8.1841e-17)
(20 8.86208e-16 -1.72013e-16)
(20 1.05162e-16 -3.64542e-16)
(20 2.17654e-16 -9.26645e-17)
(20 2.8776e-16 1.26409e-16)
(20 -1.87038e-16 1.43211e-16)
(20 -2.11909e-16 2.5787e-16)
(20 -8.03679e-17 6.83866e-17)
(20 9.4815e-16 -8.95724e-17)
(20 1.7467e-15 -2.11012e-16)
(20 2.39718e-16 -3.11733e-16)
(20 -1.02357e-15 7.36741e-17)
(20 -1.56816e-15 -3.28428e-17)
(20 -1.14832e-15 1.90455e-17)
(20 -9.70328e-16 2.7695e-16)
(20 -4.9536e-16 3.30721e-16)
(20 -2.95348e-16 1.86803e-16)
(20 2.82072e-16 1.56068e-16)
(20 -3.04838e-16 2.11823e-16)
(20 3.71351e-16 2.01746e-16)
(20 1.00886e-15 4.09616e-16)
(20 -2.52805e-17 3.01608e-16)
(20 -4.40461e-16 -6.53588e-17)
(20 -1.02592e-15 -5.15811e-16)
(20 -2.66327e-17 -3.52053e-16)
(20 -7.19988e-17 -3.91726e-16)
(20 4.68237e-16 -2.28814e-16)
(20 -3.52499e-16 -6.67788e-16)
(20 1.52033e-15 5.81363e-16)
(20 -2.69482e-16 -1.001e-16)
(20 3.19347e-16 1.26337e-16)
(20 5.32172e-16 9.96488e-17)
(20 -5.87607e-16 1.51576e-16)
(20 -1.06093e-16 7.40103e-16)
(20 -7.27399e-17 -4.59449e-16)
(20 8.94161e-17 -2.18265e-16)
(20 5.10906e-16 8.75017e-17)
(20 9.48312e-17 -1.3288e-16)
(20 -3.75968e-16 8.646e-17)
(20 -7.98851e-16 2.05254e-16)
(20 1.10876e-16 2.81725e-16)