/*--------------------------------*- C++ -*----------------------------------*\
  =========                 |
  \\      /  F ield         | OpenFOAM: The Open Source CFD Toolbox
   \\    /   O peration     | Website:  https://openfoam.org
    \\  /    A nd           | Version:  13
     \\/     M anipulation  |
\*---------------------------------------------------------------------------*/
FoamFile
{
    format      ascii;
    class       volScalarField;
    location    "1";
    object      nut;
}
// * * * * * * * * * * * * * * * * * * * * * * * * * * * * * * * * * * * * * //

dimensions      [0 2 -1 0 0 0 0];

internalField   nonuniform List<scalar> 
54636
(
0.034124
0.0318876
0.0315863
0.0315448
0.0315387
0.0315368
0.031535
0.0315324
0.0315296
0.0315256
0.0315199
0.0315116
0.0314998
0.0314844
0.0314665
0.0314484
0.0314348
0.0314274
0.0314277
0.0314349
0.031447
0.0314627
0.0314794
0.0314943
0.0315074
0.0315175
0.0315249
0.0315306
0.0315344
0.0315371
0.0315388
0.03154
0.0315405
0.0315411
0.0315413
0.0315415
0.0315417
0.0315415
0.0315415
0.0315416
0.0315416
0.0315416
0.0315416
0.0315416
0.0315416
0.0315416
0.0315416
0.0315416
0.0315416
0.0315416
0.0315416
0.0315416
0.0315416
0.0315416
0.0315416
0.0315416
0.0315416
0.0315416
0.0315416
0.0314246
0.0456474
0.0442518
0.0438388
0.0437183
0.0436828
0.0436716
0.043667
0.0436643
0.0436613
0.0436577
0.0436527
0.0436452
0.0436347
0.0436209
0.0436043
0.0435874
0.0435748
0.043568
0.0435686
0.0435768
0.0435896
0.0436054
0.0436211
0.043635
0.0436458
0.0436543
0.0436604
0.0436647
0.0436677
0.0436697
0.0436708
0.0436716
0.0436719
0.0436723
0.0436724
0.0436725
0.0436726
0.0436725
0.0436725
0.0436725
0.0436725
0.0436725
0.0436725
0.0436725
0.0436725
0.0436725
0.0436725
0.0436725
0.0436725
0.0436725
0.0436725
0.0436725
0.0436725
0.0436725
0.0436725
0.0436725
0.0436725
0.0436725
0.0436725
0.0435816
0.0483259
0.0477081
0.0474935
0.0474199
0.0473946
0.0473858
0.0473823
0.0473804
0.047379
0.0473775
0.0473755
0.0473726
0.0473684
0.0473623
0.0473541
0.0473449
0.0473375
0.0473337
0.0473341
0.0473397
0.0473471
0.0473561
0.0473639
0.0473703
0.0473749
0.0473783
0.0473805
0.047382
0.047383
0.0473836
0.0473839
0.0473841
0.0473841
0.0473842
0.0473842
0.0473842
0.0473842
0.0473841
0.0473841
0.0473841
0.0473841
0.0473841
0.0473841
0.0473841
0.0473841
0.0473841
0.0473841
0.0473841
0.0473841
0.0473841
0.0473841
0.0473841
0.0473841
0.0473841
0.0473841
0.0473841
0.0473841
0.0473841
0.0473841
0.0473405
0.0491444
0.0488233
0.0487084
0.0486674
0.0486527
0.0486473
0.0486451
0.0486441
0.0486435
0.0486431
0.0486426
0.0486422
0.0486415
0.0486787
0.0486881
0.0486871
0.0486831
0.0486821
0.0486828
0.0486867
0.0486909
0.0486559
0.0486466
0.0486446
0.0486447
0.0486452
0.0486456
0.0486458
0.048646
0.0486461
0.0486461
0.048646
0.048646
0.0486459
0.0486459
0.0486459
0.0486459
0.0486458
0.0486458
0.0486458
0.0486458
0.0486458
0.0486458
0.0486458
0.0486458
0.0486458
0.0486458
0.0486458
0.0486458
0.0486458
0.0486458
0.0486458
0.0486458
0.0486458
0.0486458
0.0486458
0.0486458
0.0486458
0.0486458
0.0486227
0.049483
0.0492889
0.0492192
0.0491942
0.0491851
0.0491818
0.0491805
0.0491799
0.0491796
0.0491796
0.0491799
0.0491808
0.0492095
0.0495133
0.0497216
0.0497209
0.0497223
0.0497216
0.0497216
0.0497224
0.049724
0.0494539
0.0492721
0.0492118
0.0491917
0.0491849
0.0491826
0.0491818
0.0491814
0.0491812
0.0491811
0.049181
0.049181
0.0491809
0.0491809
0.0491808
0.0491808
0.0491808
0.0491808
0.0491808
0.0491808
0.0491807
0.0491807
0.0491807
0.0491807
0.0491807
0.0491807
0.0491807
0.0491807
0.0491807
0.0491807
0.0491807
0.0491807
0.0491807
0.0491807
0.0491807
0.0491807
0.0491807
0.0491807
0.0491668
0.0496542
0.0495245
0.049478
0.0494612
0.0494552
0.0494529
0.0494521
0.0494517
0.0494516
0.0494518
0.0494524
0.0494571
0.0496775
0.0498713
0.0498873
0.0498715
0.0498679
0.0498832
0.0498694
0.049868
0.0498672
0.0496517
0.0495254
0.0494795
0.0494628
0.0494566
0.0494543
0.0494534
0.049453
0.0494527
0.0494526
0.0494525
0.0494524
0.0494524
0.0494523
0.0494523
0.0494523
0.0494523
0.0494523
0.0494523
0.0494523
0.0494522
0.0494522
0.0494522
0.0494522
0.0494522
0.0494522
0.0494522
0.0494522
0.0494522
0.0494522
0.0494522
0.0494522
0.0494522
0.0494522
0.0494522
0.0494522
0.0494522
0.0494522
0.0494429
0.0497526
0.0496599
0.0496266
0.0496147
0.0496104
0.0496088
0.0496082
0.0496079
0.0496079
0.0496081
0.0496087
0.0496124
0.0498075
0.0499165
0.0499692
0.0499699
0.0499687
0.0499698
0.0499682
0.049968
0.0499182
0.0497544
0.0496633
0.0496294
0.0496167
0.0496119
0.04961
0.0496093
0.0496089
0.0496087
0.0496086
0.0496085
0.0496085
0.0496084
0.0496084
0.0496084
0.0496083
0.0496083
0.0496083
0.0496083
0.0496083
0.0496083
0.0496083
0.0496083
0.0496083
0.0496083
0.0496083
0.0496083
0.0496083
0.0496083
0.0496083
0.0496083
0.0496083
0.0496083
0.0496083
0.0496083
0.0496083
0.0496083
0.0496083
0.0496016
0.0498143
0.0497447
0.0497198
0.0497109
0.0497077
0.0497065
0.049706
0.0497058
0.0497058
0.049706
0.0497065
0.0497088
0.0498549
0.0499349
0.0499812
0.04998
0.0499787
0.0499801
0.04998
0.0499785
0.049937
0.0498175
0.049749
0.0497229
0.0497129
0.0497091
0.0497075
0.0497069
0.0497066
0.0497064
0.0497063
0.0497063
0.0497062
0.0497062
0.0497062
0.0497062
0.0497061
0.0497061
0.0497061
0.0497061
0.0497061
0.0497061
0.0497061
0.0497061
0.0497061
0.0497061
0.0497061
0.0497061
0.0497061
0.0497061
0.0497061
0.0497061
0.0497061
0.0497061
0.0497061
0.0497061
0.0497061
0.0497061
0.0497061
0.0497011
0.0498555
0.0498014
0.0497821
0.0497751
0.0497726
0.0497717
0.0497714
0.0497712
0.0497712
0.0497714
0.0497718
0.0497727
0.0498036
0.0499
0.0499867
0.0499835
0.0499836
0.0499835
0.0499834
0.0499836
0.0499523
0.0498587
0.0498056
0.049785
0.049777
0.0497738
0.0497726
0.049772
0.0497718
0.0497717
0.0497716
0.0497716
0.0497715
0.0497715
0.0497715
0.0497715
0.0497714
0.0497714
0.0497714
0.0497714
0.0497714
0.0497714
0.0497714
0.0497714
0.0497714
0.0497714
0.0497714
0.0497714
0.0497714
0.0497714
0.0497714
0.0497714
0.0497714
0.0497714
0.0497714
0.0497714
0.0497714
0.0497714
0.0497714
0.0497675
0.0498844
0.0498411
0.0498257
0.0498201
0.0498182
0.0498174
0.0498171
0.0498171
0.0498171
0.0498172
0.0498176
0.0498183
0.0498346
0.0499191
0.0499893
0.049987
0.049987
0.049987
0.049987
0.049987
0.0499621
0.0498873
0.0498448
0.0498283
0.0498218
0.0498191
0.0498181
0.0498177
0.0498175
0.0498174
0.0498173
0.0498173
0.0498172
0.0498172
0.0498172
0.0498172
0.0498172
0.0498172
0.0498172
0.0498172
0.0498172
0.0498172
0.0498172
0.0498172
0.0498172
0.0498172
0.0498172
0.0498172
0.0498172
0.0498172
0.0498172
0.0498172
0.0498172
0.0498172
0.0498172
0.0498172
0.0498172
0.0498172
0.0498172
0.0498141
0.0499054
0.0498701
0.0498574
0.0498529
0.0498513
0.0498507
0.0498505
0.0498504
0.0498504
0.0498505
0.0498507
0.0498524
0.0499154
0.0499682
0.0499907
0.0499892
0.0499894
0.0499894
0.0499892
0.0499894
0.0499691
0.0499078
0.049873
0.0498595
0.0498542
0.0498521
0.0498512
0.0498508
0.0498507
0.0498506
0.0498506
0.0498505
0.0498505
0.0498505
0.0498505
0.0498505
0.0498505
0.0498505
0.0498505
0.0498505
0.0498505
0.0498505
0.0498505
0.0498505
0.0498505
0.0498505
0.0498505
0.0498505
0.0498505
0.0498505
0.0498505
0.0498505
0.0498505
0.0498505
0.0498505
0.0498505
0.0498505
0.0498505
0.0498505
0.0498479
0.0499212
0.0498917
0.0498812
0.0498775
0.0498761
0.0498756
0.0498755
0.0498754
0.0498754
0.0498755
0.0498757
0.0498768
0.0499392
0.0499724
0.0499911
0.0499912
0.0499915
0.0499931
0.0499911
0.0499912
0.0499758
0.0499226
0.0498937
0.0498826
0.0498784
0.0498767
0.049876
0.0498757
0.0498756
0.0498755
0.0498755
0.0498755
0.0498755
0.0498754
0.0498754
0.0498754
0.0498754
0.0498754
0.0498754
0.0498754
0.0498754
0.0498754
0.0498754
0.0498754
0.0498754
0.0498754
0.0498754
0.0498754
0.0498754
0.0498754
0.0498754
0.0498754
0.0498754
0.0498754
0.0498754
0.0498754
0.0498754
0.0498754
0.0498754
0.0498733
0.0499333
0.0499084
0.0498995
0.0498964
0.0498952
0.0498948
0.0498947
0.0498946
0.0498947
0.0498947
0.0498949
0.0498952
0.0499091
0.0499538
0.049992
0.0499801
0.0499798
0.0499928
0.0499802
0.0499796
0.0499781
0.0499336
0.0499093
0.0499003
0.0498969
0.0498956
0.049895
0.0498948
0.0498947
0.0498947
0.0498947
0.0498947
0.0498946
0.0498946
0.0498946
0.0498946
0.0498946
0.0498946
0.0498946
0.0498946
0.0498946
0.0498946
0.0498946
0.0498946
0.0498946
0.0498946
0.0498946
0.0498946
0.0498946
0.0498946
0.0498946
0.0498946
0.0498946
0.0498946
0.0498946
0.0498946
0.0498946
0.0498946
0.0498946
0.0498928
0.0499429
0.0499215
0.0499139
0.0499112
0.0499102
0.0499099
0.0499098
0.0499097
0.0499097
0.0499098
0.0499098
0.0499099
0.0499112
0.0499565
0.0499792
0.0499795
0.0499504
0.0499671
0.0499794
0.0499794
0.0499791
0.0499426
0.0499218
0.0499142
0.0499115
0.0499104
0.04991
0.0499099
0.0499098
0.0499098
0.0499097
0.0499097
0.0499097
0.0499097
0.0499097
0.0499097
0.0499097
0.0499097
0.0499097
0.0499097
0.0499097
0.0499097
0.0499097
0.0499097
0.0499097
0.0499097
0.0499097
0.0499097
0.0499097
0.0499097
0.0499097
0.0499097
0.0499097
0.0499097
0.0499097
0.0499097
0.0499097
0.0499097
0.0499097
0.0499082
0.0499505
0.049932
0.0499254
0.0499231
0.0499222
0.0499219
0.0499218
0.0499218
0.0499218
0.0499218
0.0499218
0.0499218
0.0499218
0.0499283
0.0499306
0.0499315
0.0499273
0.0499303
0.0499313
0.0499316
0.0499316
0.0499268
0.0499242
0.0499229
0.0499223
0.049922
0.0499219
0.0499219
0.0499218
0.0499218
0.0499218
0.0499218
0.0499218
0.0499218
0.0499218
0.0499218
0.0499218
0.0499218
0.0499218
0.0499218
0.0499218
0.0499218
0.0499218
0.0499218
0.0499218
0.0499218
0.0499218
0.0499218
0.0499218
0.0499218
0.0499218
0.0499218
0.0499218
0.0499218
0.0499218
0.0499218
0.0499218
0.0499218
0.0499218
0.0499204
0.0499567
0.0499405
0.0499348
0.0499327
0.049932
0.0499317
0.0499316
0.0499316
0.0499316
0.0499316
0.0499315
0.0499315
0.0499315
0.0499318
0.0499321
0.0499323
0.0499322
0.0499322
0.0499323
0.0499323
0.0499324
0.0499321
0.0499319
0.0499318
0.0499317
0.0499317
0.0499316
0.0499316
0.0499316
0.0499316
0.0499316
0.0499316
0.0499316
0.0499316
0.0499316
0.0499316
0.0499316
0.0499316
0.0499316
0.0499316
0.0499316
0.0499316
0.0499316
0.0499316
0.0499316
0.0499316
0.0499316
0.0499316
0.0499316
0.0499316
0.0499316
0.0499316
0.0499316
0.0499316
0.0499316
0.0499316
0.0499316
0.0499316
0.0499316
0.0499304
0.0499618
0.0499475
0.0499424
0.0499406
0.04994
0.0499398
0.0499397
0.0499396
0.0499396
0.0499396
0.0499396
0.0499396
0.0499395
0.0499395
0.0499396
0.0499397
0.0499397
0.0499397
0.0499397
0.0499397
0.0499397
0.0499397
0.0499397
0.0499397
0.0499397
0.0499397
0.0499397
0.0499397
0.0499397
0.0499397
0.0499396
0.0499396
0.0499396
0.0499396
0.0499396
0.0499396
0.0499396
0.0499396
0.0499396
0.0499396
0.0499396
0.0499396
0.0499396
0.0499396
0.0499396
0.0499396
0.0499396
0.0499396
0.0499396
0.0499396
0.0499396
0.0499396
0.0499396
0.0499396
0.0499396
0.0499396
0.0499396
0.0499396
0.0499396
0.0499386
0.0499626
0.0499473
0.0499414
0.0499391
0.0499382
0.0499378
0.0499377
0.0499377
0.0499376
0.0499376
0.0499376
0.0499376
0.0499376
0.0499376
0.0499376
0.049938
0.0499381
0.0499382
0.0499382
0.0499378
0.0499377
0.0499377
0.0499377
0.0499377
0.0499377
0.0499377
0.0499377
0.0499377
0.0499377
0.0499376
0.0499376
0.0499376
0.0499376
0.0499376
0.0499376
0.0499376
0.0499376
0.0499376
0.0499376
0.0499376
0.0499376
0.0499376
0.0499376
0.0499376
0.0499376
0.0499376
0.0499376
0.0499376
0.0499376
0.0499376
0.0499376
0.0499376
0.0499376
0.0499376
0.0499376
0.0499376
0.0499376
0.0499376
0.0499376
0.0499365
0.03449
0.0323544
0.0320731
0.0320353
0.0320294
0.0320276
0.032026
0.0320232
0.0320205
0.0320165
0.0320112
0.0320034
0.0319924
0.0319775
0.0319595
0.0319408
0.0319268
0.0319191
0.0319189
0.0319252
0.0319363
0.0319513
0.0319679
0.0319831
0.0319968
0.0320071
0.0320151
0.0320209
0.032025
0.0320278
0.0320296
0.0320308
0.0320315
0.032032
0.0320323
0.0320325
0.0320327
0.0320325
0.0320326
0.0320325
0.0320326
0.0320326
0.0320326
0.0320326
0.0320326
0.0320326
0.0320326
0.0320326
0.0320326
0.0320326
0.0320326
0.0320326
0.0320326
0.0320326
0.0320326
0.0320326
0.0320326
0.0320326
0.0320326
0.0319213
0.0458623
0.0445944
0.0442348
0.044134
0.0441051
0.0440963
0.0440924
0.04409
0.0440874
0.0440842
0.0440799
0.0440736
0.0440645
0.0440521
0.0440363
0.0440203
0.0440084
0.0440021
0.0440018
0.044008
0.0440186
0.0440327
0.0440472
0.0440605
0.0440713
0.0440796
0.0440857
0.0440899
0.0440931
0.044095
0.0440962
0.0440969
0.0440973
0.0440975
0.0440978
0.0440978
0.044098
0.0440979
0.044098
0.0440979
0.0440979
0.0440979
0.0440979
0.0440979
0.0440979
0.0440979
0.0440979
0.0440979
0.0440979
0.0440979
0.0440979
0.0440979
0.0440979
0.0440979
0.0440979
0.0440979
0.0440979
0.0440979
0.0440979
0.0440168
0.0484193
0.0478662
0.0476832
0.0476231
0.0476032
0.0475965
0.0475939
0.0475923
0.0475911
0.0475899
0.0475883
0.047586
0.0475823
0.0475767
0.0475691
0.0475605
0.0475537
0.0475501
0.0475498
0.0475539
0.0475596
0.0475675
0.0475752
0.0475816
0.0475864
0.0475898
0.0475921
0.0475936
0.0475946
0.0475952
0.0475955
0.0475957
0.0475958
0.0475958
0.0475958
0.0475959
0.0475959
0.0475958
0.0475958
0.0475958
0.0475958
0.0475958
0.0475958
0.0475958
0.0475958
0.0475958
0.0475958
0.0475958
0.0475958
0.0475958
0.0475958
0.0475958
0.0475958
0.0475958
0.0475958
0.0475958
0.0475958
0.0475958
0.0475958
0.0475578
0.0491927
0.0489061
0.0488086
0.0487754
0.048764
0.0487599
0.0487583
0.0487575
0.048757
0.0487567
0.0487566
0.0487563
0.0487543
0.0487857
0.0487938
0.0487927
0.0487905
0.0487876
0.0487877
0.04879
0.0487928
0.0487628
0.0487565
0.0487563
0.0487572
0.048758
0.0487587
0.048759
0.0487592
0.0487593
0.0487593
0.0487593
0.0487593
0.0487592
0.0487592
0.0487592
0.0487592
0.0487592
0.0487591
0.0487591
0.0487591
0.0487591
0.0487591
0.0487591
0.0487591
0.0487591
0.0487591
0.0487591
0.0487591
0.0487591
0.0487591
0.0487591
0.0487591
0.0487591
0.0487591
0.0487591
0.0487591
0.0487591
0.0487591
0.0487391
0.0495122
0.0493389
0.0492799
0.0492597
0.0492527
0.0492501
0.0492492
0.0492487
0.0492486
0.0492489
0.0492502
0.0492534
0.049279
0.0496094
0.0497698
0.0497678
0.0497691
0.04977
0.0497687
0.0497697
0.0497714
0.0494861
0.0493238
0.0492733
0.0492575
0.0492525
0.0492509
0.0492504
0.0492501
0.04925
0.0492499
0.0492498
0.0492497
0.0492497
0.0492497
0.0492496
0.0492496
0.0492496
0.0492496
0.0492496
0.0492496
0.0492496
0.0492496
0.0492496
0.0492496
0.0492496
0.0492496
0.0492496
0.0492496
0.0492496
0.0492496
0.0492496
0.0492496
0.0492496
0.0492496
0.0492496
0.0492496
0.0492496
0.0492496
0.0492374
0.0496737
0.0495579
0.0495185
0.049505
0.0495003
0.0494986
0.049498
0.0494977
0.0494977
0.0494983
0.0494999
0.0495066
0.0497451
0.0498911
0.0499612
0.0498924
0.0498869
0.0499601
0.0498916
0.0498894
0.0498955
0.0496699
0.049557
0.049519
0.049506
0.0495015
0.0494998
0.0494992
0.0494988
0.0494987
0.0494985
0.0494985
0.0494984
0.0494984
0.0494983
0.0494983
0.0494983
0.0494983
0.0494982
0.0494982
0.0494982
0.0494982
0.0494982
0.0494982
0.0494982
0.0494982
0.0494982
0.0494982
0.0494982
0.0494982
0.0494982
0.0494982
0.0494982
0.0494982
0.0494982
0.0494982
0.0494982
0.0494982
0.0494982
0.0494901
0.0497666
0.0496838
0.0496556
0.049646
0.0496426
0.0496414
0.049641
0.0496408
0.0496408
0.0496411
0.0496421
0.049646
0.0498451
0.0499742
0.0499979
0.049997
0.0499962
0.0499962
0.0499962
0.0499963
0.0499721
0.0497655
0.0496841
0.0496567
0.0496473
0.0496439
0.0496426
0.049642
0.0496417
0.0496415
0.0496414
0.0496413
0.0496413
0.0496412
0.0496412
0.0496412
0.0496412
0.0496412
0.0496412
0.0496412
0.0496412
0.0496412
0.0496412
0.0496412
0.0496412
0.0496412
0.0496412
0.0496412
0.0496412
0.0496412
0.0496412
0.0496412
0.0496412
0.0496412
0.0496412
0.0496412
0.0496412
0.0496412
0.0496412
0.0496354
0.0498248
0.0497627
0.0497416
0.0497343
0.0497318
0.0497309
0.0497306
0.0497305
0.0497304
0.0497306
0.049731
0.0497332
0.0498844
0.0499799
0.0499903
0.049988
0.0499807
0.0499892
0.0499875
0.0499804
0.0499781
0.0498253
0.049764
0.0497431
0.0497357
0.049733
0.0497319
0.0497314
0.0497312
0.049731
0.049731
0.0497309
0.0497308
0.0497308
0.0497308
0.0497308
0.0497308
0.0497308
0.0497308
0.0497308
0.0497307
0.0497307
0.0497307
0.0497307
0.0497307
0.0497307
0.0497307
0.0497307
0.0497307
0.0497307
0.0497307
0.0497307
0.0497307
0.0497307
0.0497307
0.0497307
0.0497307
0.0497307
0.0497307
0.0497264
0.0498637
0.0498154
0.049799
0.0497934
0.0497914
0.0497907
0.0497905
0.0497904
0.0497903
0.0497904
0.0497906
0.0497925
0.0498935
0.0499833
0.0499894
0.0499865
0.0499852
0.0499863
0.0499863
0.049985
0.0499832
0.0498645
0.0498171
0.0498006
0.0497947
0.0497925
0.0497916
0.0497911
0.0497909
0.0497908
0.0497907
0.0497907
0.0497906
0.0497906
0.0497906
0.0497906
0.0497906
0.0497906
0.0497906
0.0497906
0.0497906
0.0497906
0.0497906
0.0497906
0.0497906
0.0497906
0.0497906
0.0497906
0.0497906
0.0497906
0.0497906
0.0497906
0.0497906
0.0497906
0.0497906
0.0497906
0.0497906
0.0497906
0.0497906
0.0497872
0.0498909
0.0498523
0.0498392
0.0498347
0.0498332
0.0498326
0.0498324
0.0498323
0.0498323
0.0498323
0.0498326
0.0498341
0.0499145
0.0499863
0.049991
0.0499883
0.0499882
0.0499883
0.0499882
0.0499881
0.0499866
0.0498918
0.0498539
0.0498407
0.0498359
0.049834
0.0498333
0.0498329
0.0498328
0.0498327
0.0498326
0.0498326
0.0498325
0.0498325
0.0498325
0.0498325
0.0498325
0.0498325
0.0498325
0.0498325
0.0498325
0.0498325
0.0498325
0.0498325
0.0498325
0.0498325
0.0498325
0.0498325
0.0498325
0.0498325
0.0498325
0.0498325
0.0498325
0.0498325
0.0498325
0.0498325
0.0498325
0.0498325
0.0498325
0.0498298
0.0499107
0.0498792
0.0498685
0.0498648
0.0498635
0.0498631
0.0498629
0.0498629
0.0498629
0.0498629
0.0498631
0.0498645
0.0499418
0.0499901
0.0499938
0.0499916
0.0499905
0.0499916
0.0499917
0.0499903
0.0499891
0.0499112
0.0498803
0.0498696
0.0498657
0.0498642
0.0498636
0.0498633
0.0498632
0.0498631
0.0498631
0.049863
0.049863
0.049863
0.049863
0.049863
0.049863
0.049863
0.049863
0.049863
0.049863
0.049863
0.049863
0.049863
0.049863
0.049863
0.049863
0.049863
0.049863
0.049863
0.049863
0.049863
0.049863
0.049863
0.049863
0.049863
0.049863
0.049863
0.049863
0.0498608
0.0499256
0.0498993
0.0498904
0.0498874
0.0498863
0.049886
0.0498858
0.0498858
0.0498858
0.0498859
0.0498862
0.0498874
0.0499519
0.0499922
0.0499987
0.049995
0.0499921
0.0499962
0.0499948
0.0499919
0.0499915
0.0499248
0.0498996
0.049891
0.0498879
0.0498868
0.0498863
0.0498861
0.049886
0.0498859
0.0498859
0.0498859
0.0498859
0.0498859
0.0498859
0.0498858
0.0498858
0.0498858
0.0498858
0.0498858
0.0498858
0.0498858
0.0498858
0.0498858
0.0498858
0.0498858
0.0498858
0.0498858
0.0498858
0.0498858
0.0498858
0.0498858
0.0498858
0.0498858
0.0498858
0.0498858
0.0498858
0.0498858
0.0498858
0.049884
0.0499371
0.0499148
0.0499073
0.0499047
0.0499038
0.0499035
0.0499034
0.0499034
0.0499034
0.0499035
0.0499037
0.0499045
0.0499518
0.0499932
0.0499981
0.0499937
0.0499929
0.0499937
0.0499936
0.049993
0.0499953
0.0499365
0.049915
0.0499077
0.0499051
0.0499042
0.0499038
0.0499036
0.0499035
0.0499035
0.0499035
0.0499035
0.0499034
0.0499034
0.0499034
0.0499034
0.0499034
0.0499034
0.0499034
0.0499034
0.0499034
0.0499034
0.0499034
0.0499034
0.0499034
0.0499034
0.0499034
0.0499034
0.0499034
0.0499034
0.0499034
0.0499034
0.0499034
0.0499034
0.0499034
0.0499034
0.0499034
0.0499034
0.0499034
0.0499019
0.0499461
0.049927
0.0499206
0.0499184
0.0499176
0.0499174
0.0499173
0.0499173
0.0499173
0.0499173
0.0499173
0.0499174
0.0499242
0.0499652
0.0499826
0.0499822
0.0499785
0.0499826
0.049982
0.0499821
0.0499826
0.0499458
0.0499272
0.0499208
0.0499186
0.0499178
0.0499175
0.0499174
0.0499173
0.0499173
0.0499173
0.0499173
0.0499173
0.0499173
0.0499173
0.0499172
0.0499172
0.0499172
0.0499172
0.0499172
0.0499172
0.0499172
0.0499172
0.0499172
0.0499172
0.0499172
0.0499172
0.0499172
0.0499172
0.0499172
0.0499172
0.0499172
0.0499172
0.0499172
0.0499172
0.0499172
0.0499172
0.0499172
0.0499172
0.0499159
0.0499533
0.0499368
0.0499312
0.0499293
0.0499286
0.0499284
0.0499283
0.0499283
0.0499283
0.0499283
0.0499283
0.0499282
0.0499286
0.0499336
0.0499355
0.0499363
0.0499362
0.0499362
0.0499363
0.0499364
0.0499364
0.0499323
0.0499302
0.0499292
0.0499287
0.0499285
0.0499284
0.0499284
0.0499283
0.0499283
0.0499283
0.0499283
0.0499283
0.0499283
0.0499283
0.0499283
0.0499283
0.0499283
0.0499283
0.0499283
0.0499283
0.0499283
0.0499283
0.0499283
0.0499283
0.0499283
0.0499283
0.0499283
0.0499283
0.0499283
0.0499283
0.0499283
0.0499283
0.0499283
0.0499283
0.0499283
0.0499283
0.0499283
0.0499283
0.0499271
0.0499591
0.0499447
0.0499398
0.0499381
0.0499376
0.0499374
0.0499373
0.0499373
0.0499373
0.0499373
0.0499372
0.0499372
0.0499372
0.0499374
0.0499381
0.0499383
0.0499384
0.0499383
0.0499384
0.049938
0.0499379
0.0499377
0.0499376
0.0499375
0.0499374
0.0499374
0.0499373
0.0499373
0.0499373
0.0499373
0.0499373
0.0499373
0.0499373
0.0499373
0.0499373
0.0499373
0.0499373
0.0499373
0.0499373
0.0499373
0.0499373
0.0499373
0.0499373
0.0499373
0.0499373
0.0499373
0.0499373
0.0499373
0.0499373
0.0499373
0.0499373
0.0499373
0.0499373
0.0499373
0.0499373
0.0499373
0.0499373
0.0499373
0.0499373
0.0499363
0.0499639
0.0499512
0.0499469
0.0499454
0.0499449
0.0499447
0.0499447
0.0499447
0.0499446
0.0499446
0.0499446
0.0499446
0.0499446
0.0499446
0.049945
0.0499451
0.0499452
0.0499452
0.0499452
0.0499449
0.0499448
0.0499447
0.0499447
0.0499447
0.0499447
0.0499447
0.0499447
0.0499447
0.0499447
0.0499447
0.0499447
0.0499447
0.0499447
0.0499447
0.0499447
0.0499447
0.0499447
0.0499447
0.0499447
0.0499447
0.0499447
0.0499447
0.0499447
0.0499447
0.0499447
0.0499447
0.0499447
0.0499447
0.0499447
0.0499447
0.0499447
0.0499447
0.0499447
0.0499447
0.0499447
0.0499447
0.0499447
0.0499447
0.0499447
0.0499438
0.0499649
0.0499514
0.0499464
0.0499445
0.0499439
0.0499436
0.0499435
0.0499435
0.0499435
0.0499435
0.0499435
0.0499434
0.0499435
0.0499435
0.0499438
0.0499439
0.049944
0.049944
0.049944
0.0499437
0.0499436
0.0499435
0.0499435
0.0499435
0.0499435
0.0499435
0.0499435
0.0499435
0.0499435
0.0499435
0.0499435
0.0499435
0.0499435
0.0499435
0.0499435
0.0499435
0.0499435
0.0499435
0.0499435
0.0499435
0.0499435
0.0499435
0.0499435
0.0499435
0.0499435
0.0499435
0.0499435
0.0499435
0.0499435
0.0499435
0.0499435
0.0499435
0.0499435
0.0499435
0.0499435
0.0499435
0.0499435
0.0499435
0.0499435
0.0499425
0.0344984
0.0323666
0.0320859
0.0320485
0.0320427
0.032041
0.0320394
0.032037
0.0320347
0.0320314
0.0320268
0.0320201
0.0320103
0.0319969
0.0319797
0.0319619
0.0319481
0.0319407
0.0319403
0.0319457
0.0319554
0.0319691
0.0319841
0.0319987
0.0320115
0.0320214
0.0320289
0.0320344
0.0320383
0.0320411
0.0320428
0.0320439
0.0320445
0.0320451
0.0320455
0.0320454
0.0320457
0.0320456
0.0320457
0.0320456
0.0320457
0.0320457
0.0320457
0.0320457
0.0320457
0.0320457
0.0320457
0.0320457
0.0320457
0.0320457
0.0320457
0.0320457
0.0320457
0.0320457
0.0320457
0.0320457
0.0320457
0.0320457
0.0320457
0.0319346
0.0458727
0.0446137
0.044259
0.0441602
0.0441323
0.044124
0.0441204
0.0441181
0.0441158
0.0441129
0.0441093
0.0441038
0.0440956
0.0440842
0.0440694
0.0440542
0.0440425
0.0440361
0.0440355
0.0440404
0.0440496
0.0440627
0.0440765
0.0440892
0.0440997
0.0441076
0.0441136
0.0441179
0.0441207
0.0441227
0.0441239
0.0441246
0.044125
0.0441252
0.0441255
0.0441254
0.0441256
0.0441255
0.0441256
0.0441255
0.0441255
0.0441255
0.0441255
0.0441255
0.0441255
0.0441255
0.0441255
0.0441255
0.0441255
0.0441255
0.0441255
0.0441255
0.0441255
0.0441255
0.0441255
0.0441255
0.0441255
0.0441255
0.0441255
0.0440453
0.0484244
0.0478766
0.0476969
0.0476385
0.0476195
0.047613
0.0476106
0.0476091
0.047608
0.0476068
0.0476053
0.0476031
0.0475997
0.0475945
0.0475875
0.0475793
0.0475728
0.0475691
0.0475683
0.0475709
0.0475757
0.0475834
0.0475913
0.0475977
0.0476026
0.0476063
0.0476087
0.0476103
0.0476113
0.047612
0.0476122
0.0476125
0.0476126
0.0476125
0.0476126
0.0476126
0.0476126
0.0476126
0.0476126
0.0476126
0.0476126
0.0476126
0.0476126
0.0476126
0.0476126
0.0476126
0.0476126
0.0476126
0.0476126
0.0476126
0.0476126
0.0476126
0.0476126
0.0476126
0.0476126
0.0476126
0.0476126
0.0476126
0.0476126
0.0475751
0.0491955
0.0489117
0.0488161
0.048784
0.048773
0.0487692
0.0487677
0.0487669
0.0487664
0.0487665
0.048767
0.0487671
0.0487647
0.048794
0.0488019
0.0488008
0.0487985
0.0487961
0.0487953
0.0487959
0.048798
0.0487689
0.0487637
0.0487642
0.0487658
0.0487671
0.0487679
0.0487683
0.0487686
0.0487687
0.0487687
0.0487687
0.0487687
0.0487687
0.0487686
0.0487686
0.0487686
0.0487686
0.0487686
0.0487686
0.0487686
0.0487686
0.0487686
0.0487686
0.0487686
0.0487686
0.0487686
0.0487686
0.0487686
0.0487686
0.0487686
0.0487686
0.0487686
0.0487686
0.0487686
0.0487686
0.0487686
0.0487686
0.0487686
0.0487488
0.0495139
0.0493423
0.0492845
0.0492649
0.0492582
0.0492558
0.0492549
0.0492544
0.0492544
0.0492551
0.0492569
0.049262
0.0492858
0.049609
0.0497705
0.0497686
0.0497693
0.0497706
0.0497695
0.0497701
0.0497712
0.0494865
0.0493257
0.0492768
0.0492621
0.0492577
0.0492564
0.049256
0.0492558
0.0492557
0.0492556
0.0492556
0.0492555
0.0492555
0.0492554
0.0492554
0.0492554
0.0492554
0.0492554
0.0492554
0.0492553
0.0492553
0.0492553
0.0492553
0.0492553
0.0492553
0.0492553
0.0492553
0.0492553
0.0492553
0.0492553
0.0492553
0.0492553
0.0492553
0.0492553
0.0492553
0.0492553
0.0492553
0.0492553
0.0492434
0.0496748
0.0495602
0.0495216
0.0495085
0.049504
0.0495024
0.0495018
0.0495015
0.0495016
0.0495023
0.0495045
0.0495138
0.0497491
0.0498884
0.049962
0.049893
0.0498893
0.0499602
0.0498924
0.049892
0.0499609
0.0496678
0.0495566
0.0495204
0.0495087
0.0495049
0.0495035
0.0495029
0.0495027
0.0495025
0.0495024
0.0495023
0.0495022
0.0495022
0.0495022
0.0495022
0.0495021
0.0495021
0.0495021
0.0495021
0.0495021
0.0495021
0.0495021
0.0495021
0.0495021
0.0495021
0.0495021
0.0495021
0.0495021
0.0495021
0.0495021
0.0495021
0.0495021
0.0495021
0.0495021
0.0495021
0.0495021
0.0495021
0.0495021
0.0494941
0.0497674
0.0496854
0.0496578
0.0496485
0.0496453
0.0496441
0.0496437
0.0496434
0.0496434
0.0496437
0.0496447
0.049649
0.0498489
0.0499803
0.0499829
0.0499765
0.0499732
0.049976
0.0499764
0.0499733
0.0499976
0.0497612
0.0496822
0.049657
0.049649
0.0496462
0.0496452
0.0496447
0.0496444
0.0496443
0.0496442
0.0496441
0.049644
0.049644
0.049644
0.049644
0.0496439
0.0496439
0.0496439
0.0496439
0.0496439
0.0496439
0.0496439
0.0496439
0.0496439
0.0496439
0.0496439
0.0496439
0.0496439
0.0496439
0.0496439
0.0496439
0.0496439
0.0496439
0.0496439
0.0496439
0.0496439
0.0496439
0.0496439
0.0496382
0.0498254
0.0497639
0.0497432
0.0497362
0.0497338
0.049733
0.0497326
0.0497324
0.0497323
0.0497322
0.0497321
0.0497325
0.0498832
0.0499824
0.0499278
0.0499378
0.0499396
0.0499376
0.0499376
0.0499409
0.0499802
0.0498235
0.0497628
0.0497433
0.0497369
0.0497347
0.0497339
0.0497335
0.0497333
0.0497331
0.049733
0.049733
0.0497329
0.0497329
0.0497329
0.0497328
0.0497328
0.0497328
0.0497328
0.0497328
0.0497328
0.0497328
0.0497328
0.0497328
0.0497328
0.0497328
0.0497328
0.0497328
0.0497328
0.0497328
0.0497328
0.0497328
0.0497328
0.0497328
0.0497328
0.0497328
0.0497328
0.0497328
0.0497328
0.0497285
0.0498641
0.0498163
0.0498002
0.0497948
0.0497929
0.0497923
0.049792
0.0497919
0.0497917
0.0497915
0.0497912
0.0497912
0.0499083
0.0499849
0.0499492
0.0499549
0.0499548
0.0499542
0.0499544
0.049955
0.0499847
0.0498635
0.0498162
0.0498008
0.0497956
0.0497938
0.0497931
0.0497927
0.0497925
0.0497924
0.0497923
0.0497923
0.0497922
0.0497922
0.0497922
0.0497922
0.0497922
0.0497922
0.0497922
0.0497922
0.0497922
0.0497922
0.0497922
0.0497922
0.0497922
0.0497922
0.0497922
0.0497922
0.0497922
0.0497922
0.0497922
0.0497922
0.0497922
0.0497922
0.0497922
0.0497922
0.0497922
0.0497922
0.0497922
0.0497888
0.0498913
0.0498531
0.0498402
0.0498359
0.0498344
0.0498339
0.0498337
0.0498335
0.0498334
0.0498333
0.0498331
0.0498333
0.0499268
0.0499878
0.0499605
0.0499645
0.0499644
0.0499641
0.049964
0.0499642
0.0499879
0.0498909
0.0498532
0.0498408
0.0498366
0.0498351
0.0498345
0.0498342
0.049834
0.0498339
0.0498339
0.0498338
0.0498338
0.0498338
0.0498338
0.0498338
0.0498338
0.0498338
0.0498338
0.0498338
0.0498338
0.0498338
0.0498338
0.0498338
0.0498338
0.0498338
0.0498338
0.0498338
0.0498338
0.0498338
0.0498338
0.0498338
0.0498338
0.0498338
0.0498338
0.0498338
0.0498338
0.0498338
0.0498338
0.0498311
0.049911
0.0498798
0.0498693
0.0498657
0.0498645
0.0498641
0.049864
0.0498639
0.0498638
0.0498638
0.0498637
0.0498641
0.0499409
0.0499901
0.0499655
0.0499703
0.0499707
0.0499691
0.0499702
0.0499708
0.0499902
0.0499102
0.0498796
0.0498696
0.0498663
0.0498651
0.0498646
0.0498644
0.0498642
0.0498642
0.0498641
0.0498641
0.0498641
0.049864
0.049864
0.049864
0.049864
0.049864
0.049864
0.049864
0.049864
0.049864
0.049864
0.049864
0.049864
0.049864
0.049864
0.049864
0.049864
0.049864
0.049864
0.049864
0.049864
0.049864
0.049864
0.049864
0.049864
0.049864
0.049864
0.0498618
0.0499259
0.0498998
0.0498911
0.0498881
0.0498872
0.0498868
0.0498867
0.0498866
0.0498866
0.0498867
0.0498869
0.0498882
0.0499524
0.0499933
0.0499899
0.0499762
0.0499764
0.0499898
0.049976
0.0499764
0.0499988
0.0499236
0.049899
0.0498911
0.0498884
0.0498875
0.0498871
0.049887
0.0498869
0.0498868
0.0498868
0.0498868
0.0498867
0.0498867
0.0498867
0.0498867
0.0498867
0.0498867
0.0498867
0.0498867
0.0498867
0.0498867
0.0498867
0.0498867
0.0498867
0.0498867
0.0498867
0.0498867
0.0498867
0.0498867
0.0498867
0.0498867
0.0498867
0.0498867
0.0498867
0.0498867
0.0498867
0.0498867
0.0498867
0.0498849
0.0499373
0.0499153
0.0499079
0.0499054
0.0499045
0.0499043
0.0499042
0.0499041
0.0499041
0.0499042
0.0499043
0.049905
0.0499598
0.0499936
0.049999
0.0499941
0.0499932
0.049994
0.049994
0.0499932
0.0499984
0.0499365
0.0499151
0.049908
0.0499056
0.0499048
0.0499045
0.0499043
0.0499043
0.0499042
0.0499042
0.0499042
0.0499042
0.0499042
0.0499042
0.0499042
0.0499042
0.0499042
0.0499042
0.0499042
0.0499042
0.0499042
0.0499042
0.0499042
0.0499042
0.0499042
0.0499042
0.0499042
0.0499042
0.0499042
0.0499042
0.0499042
0.0499042
0.0499042
0.0499042
0.0499042
0.0499042
0.0499042
0.0499042
0.0499026
0.0499463
0.0499274
0.0499211
0.0499189
0.0499182
0.049918
0.0499179
0.0499179
0.0499179
0.0499179
0.0499179
0.0499178
0.0499245
0.0499644