/*--------------------------------*- C++ -*----------------------------------*\
  =========                 |
  \\      /  F ield         | OpenFOAM: The Open Source CFD Toolbox
   \\    /   O peration     | Website:  https://openfoam.org
    \\  /    A nd           | Version:  13
     \\/     M anipulation  |
\*---------------------------------------------------------------------------*/
FoamFile
{
    format      ascii;
    class       volScalarField;
    location    "1";
    object      p;
}
// * * * * * * * * * * * * * * * * * * * * * * * * * * * * * * * * * * * * * //

dimensions      [0 2 -2 0 0 0 0];

internalField   nonuniform List<scalar> 
54636
(
1.39255e-14
-6.82164e-16
-5.65308e-15
5.08007e-15
6.00195e-15
-2.42634e-14
-1.18667e-14
7.76091e-15
1.2039e-15
-4.46744e-15
-7.76644e-15
4.52725e-15
3.85712e-15
-6.52502e-15
-2.20493e-15
1.33272e-14
-3.18158e-15
2.15324e-14
2.12268e-14
4.25918e-15
4.49025e-15
1.17067e-14
-1.42275e-14
1.69658e-14
2.87186e-14
1.03976e-14
-3.91936e-15
1.03824e-14
7.53599e-15
5.7948e-15
1.47786e-15
3.81112e-15
1.69719e-14
1.81039e-14
2.18981e-14
9.97727e-15
4.64124e-15
2.80307e-15
4.69233e-15
8.87905e-15
1.93294e-14
9.76086e-15
6.78665e-15
2.65358e-15
1.12564e-14
1.84335e-14
2.02357e-14
1.25434e-14
9.60194e-15
7.57179e-15
1.94834e-15
2.46347e-15
4.92232e-16
6.44294e-15
5.0928e-15
-1.01222e-14
-5.8408e-15
7.40904e-15
3.17488e-15
6.00589e-15
1.14403e-14
8.8141e-16
-6.43485e-15
-5.53848e-16
1.12518e-14
-1.6591e-14
-1.30651e-14
5.4167e-15
-7.5477e-15
-3.49437e-15
-9.58364e-15
3.30061e-15
-3.76625e-15
-1.05425e-15
3.4882e-15
9.17209e-15
-9.26492e-16
1.79719e-14
2.15481e-14
8.11825e-15
1.00712e-14
7.44622e-15
-7.96424e-15
1.70393e-14
2.04393e-14
7.67292e-15
-3.86554e-15
9.49034e-15
1.25512e-14
5.82136e-15
1.15792e-14
2.89395e-15
2.24779e-14
1.84619e-14
1.7428e-14
1.35959e-14
-4.28602e-15
1.21573e-14
1.13103e-15
5.64246e-15
1.60434e-14
1.04684e-14
6.24272e-15
7.35984e-15
1.23305e-14
1.37433e-14
1.528e-14
1.68272e-14
4.58886e-15
9.24471e-15
7.8756e-15
2.97209e-15
1.38339e-15
5.10255e-15
-1.38126e-15
-5.45571e-15
-5.58813e-15
2.97447e-15
6.02464e-15
8.36629e-16
1.19735e-14
2.71129e-15
-9.03026e-15
-5.34818e-15
8.70109e-15
-1.28686e-14
-7.25241e-15
-1.38665e-15
-9.30408e-15
-2.02099e-16
-6.59567e-16
-3.93188e-15
-8.98283e-15
8.50742e-15
4.55489e-15
4.40448e-15
1.38775e-15
1.3939e-14
2.13279e-14
1.78343e-14
7.75329e-15
4.85163e-15
3.09874e-15
1.65848e-14
1.44782e-14
1.178e-14
-5.28859e-16
-1.5508e-15
1.79258e-14
7.09846e-15
1.044e-14
1.1112e-14
1.16981e-14
1.52903e-14
1.03757e-14
1.67011e-14
-6.64502e-15
1.52743e-14
6.16982e-15
8.48368e-15
1.2669e-14
1.12326e-14
4.5684e-15
1.03839e-14
1.47225e-14
1.18604e-14
1.42459e-14
1.58264e-14
7.33019e-15
5.58502e-15
1.02832e-14
3.09165e-15
-2.85681e-15
2.92523e-15
3.11555e-16
-7.90806e-16
-3.97867e-16
-1.28555e-15
5.39155e-15
-4.81646e-15
9.46561e-15
2.63176e-15
-1.62988e-14
-3.22562e-15
5.5779e-16
-1.27412e-14
1.67087e-15
-9.95843e-15
-1.57279e-15
2.35731e-15
-3.2268e-15
1.57049e-15
-1.35414e-14
1.31944e-14
-4.42436e-15
5.9629e-15
1.05567e-14
9.54869e-15
2.29352e-14
1.15438e-14
-2.58575e-15
6.90588e-15
1.11546e-14
1.30913e-14
1.04788e-14
1.13868e-14
1.93343e-15
2.67315e-15
2.3776e-14
-1.67814e-15
1.17589e-14
1.48547e-14
1.01586e-14
8.65399e-15
8.03239e-15
9.88005e-15
2.57075e-16
1.23977e-14
1.23856e-14
5.72684e-15
1.62551e-14
1.15149e-14
-1.6714e-15
1.51478e-14
2.00435e-14
8.9118e-15
1.43284e-14
1.50524e-14
8.65481e-15
1.52872e-15
1.15912e-14
3.00062e-15
-2.71512e-15
1.7627e-15
-2.76491e-16
5.67631e-15
4.7798e-15
-1.0299e-15
2.69429e-15
-5.23448e-15
1.20634e-14
3.74829e-15
-1.68188e-14
-8.31505e-15
-1.3519e-15
-1.1534e-14
1.34955e-15
-3.81986e-16
-4.44521e-15
-5.55908e-15
-5.84173e-15
-2.57248e-16
-2.00567e-14
1.87851e-15
-1.70367e-15
3.49786e-15
8.92411e-15
1.30733e-14
9.45292e-15
1.70116e-14
1.48822e-14
5.76975e-15
1.08692e-14
7.21314e-15
1.61066e-14
3.40178e-15
5.17121e-15
6.8616e-15
1.72559e-14
2.08142e-15
9.57492e-15
1.71825e-14
3.53055e-15
3.62304e-15
-8.6795e-16
1.1088e-14
1.87621e-16
1.56649e-14
1.11371e-14
1.35329e-14
1.11125e-14
1.23096e-14
-2.37506e-15
1.41507e-14
1.79747e-14
1.09754e-14
1.69028e-14
1.58545e-14
7.86367e-15
5.74093e-15
4.83736e-15
3.35098e-15
4.10948e-16
1.94144e-15
-5.92497e-15
3.98262e-15
1.09049e-14
-5.16954e-15
3.5077e-15
1.62577e-15
9.37474e-15
7.31174e-15
-1.36319e-14
-7.22842e-15
2.19373e-15
-1.63013e-14
-2.66053e-15
3.77284e-15
8.64254e-16
8.17418e-16
-8.07503e-15
-2.10667e-16
-1.81773e-14
-3.40494e-15
1.34328e-15
-1.19172e-16
1.5525e-14
-6.53516e-15
1.34926e-14
2.42478e-15
1.40688e-14
9.24142e-15
1.49e-14
6.45702e-15
-1.66307e-15
1.30694e-14
8.92519e-17
1.53098e-14
1.18809e-14
8.29964e-15
4.43636e-15
1.82533e-14
2.28942e-15
2.18871e-15
-5.06196e-16
7.69919e-15
1.18422e-14
1.10173e-14
4.19162e-15
6.16573e-15
1.80064e-14
1.47014e-14
4.19213e-17
1.50831e-14
1.79364e-14
7.45775e-15
1.57657e-14
1.91098e-14
6.60932e-15
7.8163e-15
5.83199e-15
-3.02263e-15
3.21017e-15
5.74847e-15
-8.66471e-15
3.64966e-15
1.06527e-14
-4.74839e-15
-2.25075e-15
3.45163e-16
6.48201e-15
1.15325e-16
-7.3829e-15
-7.04366e-15
5.81323e-15
-1.28841e-14
-1.15427e-14
1.39848e-17
4.40439e-15
4.46865e-15
-5.48427e-15
-4.54765e-17
-4.42532e-15
-1.1527e-14
2.27252e-14
2.16908e-15
1.98393e-14
-9.33277e-15
3.80532e-15
-5.28988e-15
8.21128e-15
7.06294e-15
5.78517e-15
1.10064e-14
3.23884e-15
8.54405e-15
-3.14489e-15
7.7159e-15
2.15053e-14
8.60702e-15
8.20195e-15
1.35168e-14
5.98783e-15
-3.7295e-15
-1.44351e-15
7.40738e-15
1.02112e-14
1.05036e-14
9.16738e-15
6.88407e-15
2.0395e-14
1.97814e-14
3.31275e-15
1.96599e-14
1.42419e-14
5.37442e-15
1.54258e-14
1.60971e-14
6.80506e-15
1.13487e-14
3.94299e-15
6.94242e-16
4.80183e-15
1.67235e-15
-6.44254e-15
4.56979e-15
5.60281e-15
2.88505e-16
3.13348e-15
2.35859e-15
1.36281e-15
3.73625e-15
-5.08434e-15
1.46978e-19
1.00269e-15
-1.72051e-14
-8.16223e-15
-3.38759e-15
4.71759e-15
9.72617e-15
-5.50423e-15
5.37881e-15
-4.74993e-15
4.2077e-16
-5.72816e-15
1.00697e-14
1.83157e-14
1.2525e-15
-1.65985e-14
7.2629e-15
9.41169e-15
4.83798e-15
1.79809e-15
9.87092e-15
6.09656e-15
1.062e-14
-8.39453e-15
8.42496e-15
2.78427e-14
2.62498e-15
5.88666e-15
8.63468e-15
5.81302e-15
-2.67253e-15
-1.2835e-15
1.2946e-14
1.14409e-14
4.96486e-15
1.71153e-14
7.5703e-15
1.46436e-14
1.82298e-14
1.24327e-14
1.94338e-14
1.45924e-14
6.08019e-15
2.06243e-14
1.25608e-14
6.11601e-15
8.43147e-15
7.41804e-15
9.91912e-16
6.09344e-15
1.60468e-15
-7.13519e-15
5.31261e-15
4.89488e-15
3.30892e-15
-9.95528e-16
2.59125e-17
-1.54605e-15
8.84994e-17
1.38846e-15
-1.60993e-15
2.29609e-16
-1.96709e-14
-1.81511e-14
4.31187e-15
2.29363e-15
5.31822e-15
-1.00468e-14
1.22801e-14
-1.25338e-15
-1.72589e-14
1.11655e-16
-1.00564e-14
2.24489e-14
-4.93498e-15
-1.95457e-15
2.90069e-14
5.26431e-15
7.70742e-15
-2.47692e-15
9.92055e-15
6.15162e-15
2.6318e-15
8.94122e-16
3.02692e-15
2.04379e-14
2.83345e-15
-6.76932e-16
8.32413e-15
4.5864e-15
3.44835e-15
5.46975e-15
1.09458e-14
9.06078e-15
6.36015e-15
7.34879e-15
1.32864e-14
1.44876e-14
1.72168e-14
9.21678e-15
2.099e-14
2.13528e-14
6.60389e-15
2.07994e-14
1.90695e-14
4.93761e-15
9.28074e-15
-2.40552e-15
7.89208e-15
1.03896e-14
4.16308e-15
-2.82548e-15
-2.96528e-15
8.17643e-15
5.5242e-15
-4.68852e-15
-2.9103e-16
-1.33298e-15
-4.36257e-15
-6.65191e-16
-4.28606e-15
-3.04568e-15
-1.49333e-14
-1.31559e-14
9.04545e-16
4.65636e-15
2.41388e-15
-5.23637e-15
1.36875e-15
1.19263e-14
2.51878e-15
1.78915e-14
1.28291e-14
-1.35316e-14
1.70145e-14
1.0735e-14
3.63785e-15
2.37877e-16
8.49787e-15
-1.16575e-17
9.47777e-15
-8.95195e-16
-3.093e-15
9.53649e-15
-1.2149e-15
1.94469e-14
-1.50296e-15
-3.51195e-15
1.18244e-14
-5.13834e-15
-2.78474e-15
1.14718e-14
9.1766e-15
2.03963e-14
3.12974e-15
8.95961e-15
4.6419e-15
1.19441e-14
1.33099e-14
1.75985e-14
1.98972e-14
1.94623e-14
1.25052e-14
1.84151e-14
1.75702e-14
8.89022e-15
1.02451e-14
3.49845e-15
6.46028e-15
6.64167e-15
5.42017e-15
-5.64667e-16
-5.31097e-15
5.18506e-15
8.12055e-15
-9.18581e-15
-8.57333e-15
-3.08443e-15
-4.5712e-15
-6.63416e-15
-2.57657e-15
-1.6316e-14
-6.26037e-15
-7.54627e-15
8.15294e-15
8.56169e-15
-4.71983e-15
-9.96784e-16
3.26768e-15
1.39543e-15
4.32061e-17
1.95023e-14
-6.71957e-15
7.20016e-15
2.34771e-14
2.12103e-14
4.16695e-16
6.44999e-15
1.18221e-14
-9.47233e-17
8.18922e-15
-7.03636e-15
-3.33431e-15
2.83809e-15
-7.96625e-17
1.61129e-14
-1.30552e-17
4.94759e-16
8.18529e-15
-6.52027e-15
-5.94427e-15
1.53689e-14
2.2253e-14
2.38414e-14
7.98289e-16
-1.18584e-15
7.40057e-15
1.1536e-14
1.88808e-14
1.8501e-14
1.41637e-14
1.70171e-14
1.39551e-14
1.11697e-14
1.03669e-14
1.29879e-14
1.62801e-14
1.14084e-15
4.27513e-15
2.86333e-15
2.86192e-15
4.65444e-15
-1.08361e-15
2.47452e-15
3.4399e-15
-5.76008e-15
-9.08793e-15
7.25744e-16
-4.15062e-15
-8.37634e-15
-4.17842e-15
-1.60095e-14
-3.16655e-15
-5.06209e-15
1.06089e-14
3.81501e-15
-6.48639e-15
6.45102e-15
-9.94132e-15
2.96995e-15
7.34072e-15
4.04549e-14
-3.78903e-15
8.46955e-15
-4.23729e-14
3.37578e-14
9.07044e-15
-5.83439e-15
1.26795e-14
-6.60752e-15
6.02112e-15
-5.12971e-15
2.68528e-16
-1.23005e-16
-6.10769e-15
1.58998e-14
3.94549e-15
2.20697e-15
4.997e-15
-1.31939e-15
-5.72587e-15
8.45048e-15
2.29614e-14
1.73783e-14
9.45051e-15
2.36142e-15
8.79153e-15
9.35344e-15
1.65821e-14
1.7779e-14
1.55947e-14
1.60884e-14
1.39533e-14
1.1177e-14
8.22412e-15
7.02921e-15
1.58592e-14
1.37858e-15
3.28823e-15
5.18544e-15
4.78141e-15
2.97791e-15
4.16666e-16
1.91455e-15
1.74209e-15
-5.41173e-15
-4.75785e-15
-4.03527e-16
7.9248e-15
-9.98231e-15
-9.06536e-15
-1.32047e-14
2.74893e-15
-1.26959e-15
7.86812e-16
4.37852e-15
-1.09089e-14
1.91173e-15
-8.17803e-15
-8.84845e-16
-1.20875e-15
2.1024e-14
2.07699e-15
1.0821e-14
-1.19053e-14
-3.07138e-15
1.19175e-14
-1.07179e-14
8.37185e-15
-7.66275e-15
2.24046e-15
-6.88281e-15
3.52635e-15
-6.93151e-15
3.99739e-15
1.59435e-14
1.22606e-14
-2.35932e-15
7.77135e-15
-2.29855e-15
4.30775e-16
7.89037e-15
1.81316e-14
1.00389e-14
6.46336e-15
5.37254e-15
1.0405e-14
1.32956e-14
1.68191e-14
1.67844e-14
1.60776e-14
1.80089e-14
9.99242e-15
1.07992e-14
1.23307e-14
9.67636e-16
8.22093e-15
9.0633e-15
2.54448e-15
4.83095e-15
7.50697e-15
1.13614e-15
2.62237e-15
2.62759e-16
-2.33873e-15
5.20647e-15
-4.32226e-16
7.675e-15
8.59851e-15
-7.07201e-15
-1.01524e-14
-4.94165e-15
-1.73091e-15
-4.6789e-15
-5.42434e-15
4.8662e-15
-1.16337e-14
1.35445e-15
6.92418e-16
-7.18394e-15
-3.27329e-16
1.81338e-14
2.34722e-14
6.05057e-15
-1.9756e-15
-9.25158e-15
-1.59979e-15
9.68855e-16
2.56203e-15
-1.11528e-14
7.79396e-15
-4.20499e-16
1.37515e-14
-4.67128e-15
-6.03421e-15
1.31302e-14
7.75144e-15
-5.59577e-15
5.30435e-15
1.25792e-14
4.73997e-15
6.18471e-15
1.03096e-14
1.62154e-14
9.68691e-15
-1.24774e-15
4.6352e-15
1.54677e-14
2.72387e-14
1.52697e-14
1.63302e-14
2.1475e-14
1.273e-14
1.22992e-14
8.66954e-15
-6.30459e-15
9.47904e-15
8.43992e-15
-5.63312e-16
5.25318e-15
8.21229e-15
4.51534e-15
4.63101e-15
6.53562e-16
-2.34084e-15
8.02556e-15
-4.78576e-15
6.48997e-16
1.12742e-14
-1.46725e-15
-6.34595e-15
-4.23592e-15
-5.20655e-15
-9.42137e-15
-2.46342e-15
-1.40408e-15
-3.04643e-15
-3.63616e-15
-3.82572e-15
7.01755e-15
5.56187e-15
8.82519e-15
1.71151e-14
1.11671e-14
-8.8349e-16
-6.1256e-15
-6.82732e-16
1.12534e-14
-4.95326e-15
-8.13624e-15
-2.25896e-15
1.0998e-14
1.65654e-14
-2.15587e-15
-1.05614e-14
9.27678e-15
8.88206e-16
2.88519e-15
1.51749e-15
9.75665e-15
1.19906e-14
7.34175e-15
2.8283e-15
1.44129e-14
5.58241e-15
5.21455e-15
6.8239e-15
1.63424e-14
2.23566e-14
1.19339e-14
1.58484e-14
2.33901e-14
1.30914e-14
1.43443e-14
5.55157e-15
-1.24774e-14
1.0339e-14
6.53561e-15
4.59163e-16
8.64312e-15
1.1946e-14
4.71142e-15
7.41953e-15
-1.07908e-15
-4.55866e-15
8.73148e-15
-5.18208e-15
-5.0612e-15
5.79614e-15
2.9957e-15
-9.52322e-15
-5.56749e-16
-8.92122e-15
-1.07464e-14
-9.35092e-15
2.11114e-15
7.77204e-15
1.04334e-16
-7.00461e-15
1.05807e-14
1.11325e-15
1.30062e-14
1.74884e-14
1.62025e-14
-1.04985e-15
-6.88074e-15
-1.87608e-15
1.59665e-14
-1.83619e-14
-7.35215e-16
2.88717e-15
1.36681e-14
1.27934e-14
-6.48663e-15
-7.64081e-15
1.92222e-15
-1.90653e-15
1.01408e-14
-2.89681e-15
4.61653e-15
2.18194e-14
6.70339e-15
-6.75559e-15
1.25375e-14
-3.84794e-16
5.79448e-16
1.68447e-14
2.25246e-14
1.8734e-14
7.58797e-15
1.27707e-14
2.34392e-14
1.01251e-14
1.18608e-14
1.10549e-14
-8.48631e-15
5.71347e-15
8.51669e-15
-3.25089e-15
7.18586e-15
1.42286e-14
1.22291e-14
3.49714e-15
-3.59314e-15
-1.04537e-15
6.89067e-15
-2.98387e-15
-2.64868e-15
6.92692e-15
4.50634e-15
-5.65202e-15
-5.41729e-15
-5.58019e-15
-1.20073e-14
-8.48872e-15
-7.80002e-15
1.89262e-14
-4.46131e-16
-3.89623e-15
1.1659e-14
-1.39146e-15
1.06308e-14
2.15174e-14
2.04563e-14
3.85776e-16
-8.73011e-15
2.01398e-15
6.54256e-15
-2.48925e-14
3.52956e-15
1.45208e-14
9.11501e-15
1.91512e-14
-8.34184e-15
-6.39865e-15
2.38165e-15
-3.74543e-15
1.25551e-14
-1.13924e-14
2.52715e-15
2.93258e-14
9.93413e-15
-9.17196e-15
1.14916e-14
1.30258e-15
1.07885e-15
1.77203e-14
2.5223e-14
1.71327e-14
8.2072e-15
8.38138e-15
2.29373e-14
1.28056e-14
1.14484e-14
9.48516e-15
-5.18678e-15
5.12749e-15
3.62641e-15
-4.41977e-15
2.4109e-15
1.50737e-14
1.8509e-14
5.44938e-15
1.0368e-16
-3.36111e-15
5.49147e-15
-1.68307e-15
-2.5869e-15
8.79846e-15
7.85664e-15
-1.15745e-14
-8.93123e-15
1.33738e-15
-8.6812e-15
-1.1329e-14
-1.53655e-14
1.48446e-14
1.08673e-14
6.83757e-15
5.18124e-15
5.23759e-15
-2.2623e-15
1.58596e-14
2.17204e-14
-5.76615e-15
5.33566e-15
1.15099e-15
2.41273e-15
-3.11178e-14
9.71393e-15
2.46884e-14
7.53179e-15
1.32059e-14
-7.85487e-15
-3.35163e-15
4.05767e-15
6.61068e-16
1.43591e-14
-1.53546e-14
-2.70758e-16
3.69029e-14
4.54669e-15
-2.24863e-14
1.32282e-14
8.12605e-15
5.54923e-15
2.11737e-14
1.43939e-14
1.48231e-14
9.18258e-15
1.12706e-14
2.04112e-14
1.35182e-14
1.10833e-14
7.36016e-15
8.25328e-16
3.88854e-15
1.76142e-15
-5.78297e-15
4.55057e-16
1.5837e-14
1.73144e-14
1.05285e-14
1.05872e-15
-2.00808e-15
3.34561e-16
-1.86206e-15
1.71529e-14
-2.20094e-15
-3.39292e-15
2.08592e-15
1.65133e-15
-1.74681e-14
-3.89564e-15
2.27539e-15
-8.83781e-16
-3.79827e-15
-6.38353e-15
6.79202e-15
4.7714e-15
-8.16728e-16
-5.44379e-15
8.34712e-15
3.21284e-16
1.89334e-14
1.69537e-14
6.00051e-15
-8.60738e-16
1.03709e-14
-1.51797e-15
1.75783e-14
2.22474e-14
7.02498e-15
9.50208e-16
1.17837e-14
5.79151e-15
3.49882e-15
3.58134e-15
5.14957e-15
1.99348e-14
1.7321e-14
1.50771e-14
1.56021e-14
1.96134e-15
4.82045e-15
7.15704e-15
2.09503e-15
1.91555e-14
8.50253e-15
6.70973e-15
6.41243e-15
1.09868e-14
1.38742e-14
1.65709e-14
1.78558e-14
4.3969e-15
6.89851e-15
5.85887e-15
2.18019e-15
-1.59291e-15
8.49994e-15
2.51045e-15
-7.16227e-15
7.83743e-16
4.03767e-15
3.48886e-16
2.94287e-15
1.11006e-14
1.91101e-15
-7.03057e-15
3.31952e-15
2.70327e-15
-1.69088e-14
-4.76619e-15
-8.41062e-17
-5.3916e-15
-3.08315e-15
-6.74138e-15
3.52356e-15
-2.09222e-16
3.98581e-15
-3.12876e-15
1.05636e-14
9.97405e-16
1.77311e-14
1.67764e-14
9.60835e-15
9.86751e-16
1.22802e-14
-3.42355e-15
1.90277e-14
1.70313e-14
6.35094e-15
1.13496e-15
6.92463e-15
6.9662e-15
5.89795e-15
6.77788e-15
7.42341e-15
2.22107e-14
1.9987e-14
1.28137e-14
1.33219e-14
4.75515e-15
6.95931e-15
4.85737e-15
1.77411e-15
1.75439e-14
1.04547e-14
6.1246e-15
7.97451e-15
1.19281e-14
1.20365e-14
1.27029e-14
2.2365e-14
6.35659e-15
4.76653e-15
1.06309e-14
2.75701e-15
-5.12291e-15
6.91653e-15
1.85276e-15
-5.84505e-15
-1.56418e-15
2.92868e-15
7.67487e-16
4.95379e-16
5.62981e-15
3.39515e-15
-1.14823e-14
-3.64224e-15
5.77654e-15
-1.2909e-14
-7.7543e-15
-4.1784e-15
-4.92163e-15
-1.57723e-15
-2.89973e-15
9.68976e-16
-5.6127e-15
4.37643e-15
1.56126e-15
6.49178e-15
3.19379e-15
1.36933e-14
2.0562e-14
1.12131e-14
3.26087e-15
9.84503e-15
1.57433e-15
1.60474e-14
1.23014e-14
1.00629e-14
5.86382e-15
-1.62714e-15
7.92179e-15
1.06029e-14
6.07092e-15
1.34231e-14
1.41504e-14
1.97157e-14
7.5268e-15
1.63101e-14
1.61259e-16
1.03979e-14
7.04611e-15
2.94842e-15
1.68624e-14
1.21688e-14
5.49585e-15
9.80391e-15
1.39413e-14
1.21412e-14
1.37594e-14
1.6895e-14
7.83413e-15
4.76445e-15
1.27725e-14
2.93462e-15
-7.91758e-15
3.44488e-15
2.00592e-15
-2.19282e-15
-2.01833e-16
3.37951e-15
-6.83514e-16
-2.32717e-15
7.87942e-15
5.82762e-15
-1.45971e-14
-1.57796e-15
7.80728e-16
-1.02795e-14
-5.69101e-15
-7.43363e-15
1.72143e-15
-6.8048e-16
-4.79133e-15
-5.44476e-16
-1.34589e-14
8.53124e-15
-1.60165e-17
9.2339e-15
4.44909e-15
9.19749e-15
2.46058e-14
9.48367e-15
2.46191e-16
7.66242e-15
3.55119e-15
1.11313e-14
1.43466e-14
9.84832e-15
-7.53421e-16
2.33809e-15
1.37586e-14
1.02919e-14
1.03699e-14
1.59905e-14
6.8213e-15
9.61622e-15
7.61287e-15
1.07906e-14
3.58342e-15
1.25484e-14
9.36234e-15
4.51851e-15
1.52778e-14
1.23849e-14
1.89451e-15
1.20533e-14
1.81425e-14
1.26366e-14
1.3695e-14
1.48146e-14
1.02977e-14
2.82285e-15
1.00567e-14
2.55213e-15
-6.1728e-15
1.52337e-15
2.27962e-15
3.10762e-15
4.71689e-15
9.12564e-16
2.04457e-15
-3.48931e-15
7.68124e-15
8.716e-15
-1.4079e-14
-4.80577e-15
-3.46357e-15
-6.71602e-15
-5.67084e-15
-3.12649e-15
1.36213e-15
2.912e-15
-4.87768e-15
-2.88689e-15
-1.77349e-14
3.44725e-15
6.25345e-16
4.895e-15
9.65995e-15
6.94066e-15
9.78589e-15
1.16943e-14
5.56413e-15
4.92416e-15
1.09228e-14
7.46288e-15
1.36765e-14
3.85844e-15
4.35789e-15
8.85356e-15
1.13417e-14
7.82678e-15
7.54175e-15
1.65786e-14
1.47665e-15
7.97775e-15
6.36755e-15
6.09931e-15
5.68743e-15
1.41255e-14
1.03227e-14
9.89549e-15
1.13182e-14
1.27082e-14
1.95491e-16
1.47668e-14
1.82858e-14
1.33717e-14
1.17687e-14
1.49972e-14
7.58397e-15
6.91459e-15
8.93081e-15
-9.99414e-16
-5.26271e-17
3.60938e-16
-1.60765e-15
3.63361e-15
9.70913e-15
-2.54971e-15
2.54651e-16
-1.80768e-15
9.84717e-15
5.68699e-15
-1.21875e-14
-2.24537e-15
-7.01305e-15
-8.50735e-15
-5.68431e-15
-1.34424e-15
6.66714e-15
3.56357e-15
-8.79136e-15
-1.99157e-15
-1.11623e-14
-5.26424e-15
1.49887e-15
-4.34745e-15
8.41835e-15
-1.95962e-15
1.52754e-14
4.69733e-15
6.65866e-15
4.48055e-15
1.87684e-14
8.27059e-15
4.38737e-15
7.69719e-15
3.56453e-16
1.15719e-14
8.55519e-15
8.66921e-15
6.61289e-15
1.4504e-14
3.59013e-16
7.17852e-15
3.68093e-15
7.40296e-15
1.19325e-14
4.88571e-15
9.96787e-15
8.73996e-15
1.12133e-14
1.46715e-14
4.13719e-15
1.42856e-14
1.31449e-14
1.33571e-14
1.58648e-14
1.64147e-14
4.02891e-15
8.27701e-15
7.89289e-15
-3.16869e-15
4.78332e-15
4.07217e-15
-6.56402e-15
3.12923e-15
8.05867e-15
-1.04162e-15
-1.02045e-15
-1.4509e-15
9.24827e-15
1.04145e-15
-1.09607e-14
-7.90943e-15
2.81043e-15
-1.18757e-14
-4.27367e-15
2.61411e-15
-4.57411e-16
6.5452e-15
-3.74117e-15
-2.96941e-15
-3.59258e-15
-1.21984e-14
6.20476e-15
1.80988e-14
3.97494e-15
-7.18266e-15
1.31023e-14
-8.57009e-15
2.66888e-14
4.67838e-15
1.2808e-14
6.98527e-15
9.62068e-15
8.38839e-15
-2.67726e-15
8.91868e-15
1.41785e-14
1.12308e-14
2.89003e-15
1.0953e-14
2.26914e-15
5.81373e-15
2.37623e-15
6.7906e-15
8.03637e-15
5.55978e-15
1.29311e-14
1.06533e-14
1.00708e-14
1.70564e-14
9.48951e-15
1.7537e-14
1.16522e-14
1.00503e-14
1.33458e-14
1.76447e-14
5.86803e-15
8.33885e-15
9.59905e-15
1.26468e-15
6.04451e-15
-6.95511e-16
-7.3111e-15
5.92025e-15
3.84408e-15
9.33403e-16
1.36587e-15
-3.14489e-15
-6.93724e-16
-2.72879e-16
-7.698e-15
-4.5133e-15
7.98888e-16
-1.24971e-14
-4.79235e-15
-1.05813e-16
6.1422e-15
4.93279e-15
-5.89953e-15
2.4146e-15
-4.48159e-15
-1.89193e-14
9.08523e-15
9.01501e-15
1.67839e-14
7.62796e-15
-1.04217e-14
3.07567e-16
-3.34625e-15
7.42454e-15
5.15449e-15
7.47775e-15
8.62824e-15
6.31134e-15
-2.8749e-15
7.24795e-15
1.91692e-14
4.12636e-15
3.99166e-15
8.99037e-15
2.69839e-15
9.82804e-16
3.45594e-15
1.18579e-14
1.31145e-14
6.28734e-15
9.14895e-15
1.28634e-14
1.08509e-14
1.65093e-14
1.63298e-14
1.31957e-14
1.32045e-14
1.2244e-14
1.75596e-14
1.49376e-14
5.57767e-15
7.1458e-15
7.68511e-15
4.01092e-15
5.17728e-15
-1.1543e-16
-4.22006e-15
3.89032e-15
2.7374e-15
4.29885e-15
-1.94341e-15
-1.39715e-15
-3.97604e-15
-2.48583e-15
-2.19686e-15
-2.525e-15
-2.20626e-15
-1.78464e-14
-1.42894e-14
5.4956e-15
6.41241e-15
4.43863e-15
-1.24579e-14
8.34239e-15
-2.34425e-16
-6.78173e-15
8.30591e-15
2.0888e-15
1.03314e-14
3.74834e-15
5.00697e-15
6.7785e-16
3.03957e-15
1.04616e-14
-1.59618e-15
8.32296e-15
8.60009e-15
-4.38317e-15
2.20655e-15
9.48836e-15
1.46326e-14
4.10941e-15
-1.84832e-15
6.61179e-15
4.61343e-15
2.21974e-15
4.48725e-15
8.37839e-15
1.19044e-14
5.6614e-15
1.2861e-14
9.58804e-15
9.99395e-15
1.55802e-14
1.52382e-14
1.56843e-14
1.84404e-14
1.42708e-14
2.12565e-14
1.7479e-14
4.78337e-15
2.55051e-15
1.90265e-15
5.33611e-15
8.25777e-15
5.15279e-15
-2.35848e-15
2.81859e-16
5.37743e-15
6.43992e-15
-6.3881e-15
-3.23647e-15
-3.30209e-16
-6.47272e-15
-4.24516e-15
-5.83269e-16
-5.04692e-15
-1.86739e-14
-9.48004e-15
3.53535e-15
3.39275e-15
-2.21069e-16
-5.17787e-15
6.15945e-15
8.959e-15
-1.34114e-14
4.16202e-14
1.29446e-14
1.73578e-14
-3.21717e-16
1.50787e-14
6.03522e-15
4.52367e-15
1.04534e-14
-1.42541e-15
6.74645e-15
3.66074e-16
-6.10717e-15
8.32983e-15
4.56177e-15
1.80252e-14
2.35237e-15
-5.9267e-15
7.4126e-15
1.08598e-15
-1.34313e-15
9.52242e-15
9.26117e-15
1.74326e-14
7.16573e-15
9.98541e-15
2.53961e-15
9.28417e-15
1.89509e-14
2.05648e-14
1.718e-14
2.11101e-14
1.43081e-14
1.7582e-14
1.36033e-14
8.07911e-15
8.29662e-15
-3.44245e-16
6.93403e-15
6.53405e-15
8.38921e-15
-2.59578e-15
-3.09243e-15
6.04824e-15
6.86998e-15
-7.87546e-15
-7.77248e-15
-6.15922e-15
-4.05757e-15
-8.43881e-15
-5.06219e-16
-1.40785e-14
-1.16685e-14
-5.7187e-15
6.03409e-15
4.07981e-15
-1.10563e-15
-2.42747e-15
8.36336e-16
7.47457e-15
5.20077e-15
3.31023e-14
8.25159e-15
1.40351e-14
6.33462e-15
2.33661e-14
2.7769e-15
4.71077e-15
1.0003e-14
-2.70297e-15
6.96576e-15
-3.19927e-15
-3.31364e-15
7.19953e-15
1.32346e-15
1.36579e-14
2.25546e-15
-4.05075e-15
8.08354e-15
-5.98716e-16
-3.13823e-15
1.2528e-14
2.27386e-14
1.49846e-14
7.40264e-15
1.90688e-15
5.1868e-15
1.23927e-14
1.67706e-14
2.03035e-14
1.76939e-14
1.71363e-14
1.51056e-14
1.4763e-14
6.51083e-15
1.12737e-14
1.47421e-14
-2.87634e-15
3.62593e-15
7.60957e-15
7.91425e-15
1.68781e-15
-3.61119e-16
9.92073e-16
3.13777e-15
-5.18859e-15
-6.36689e-15
-4.63398e-15
1.23786e-15
-1.18247e-14
-5.91981e-15
-1.43294e-14
-4.00962e-15
-8.65417e-15
1.17856e-14
2.53439e-15
-2.23943e-15
2.00654e-15
-7.96677e-15
3.34156e-15
1.57544e-15
1.68094e-14
-3.20397e-16
2.91076e-14
4.32427e-15
1.5985e-14
2.82545e-16
2.52707e-14
8.44445e-15
-4.26349e-15
5.20212e-15
-7.09115e-15
-3.13375e-15
5.08928e-15
3.61391e-15
9.3795e-15
6.61005e-15
4.08183e-16
2.87542e-15
-1.16945e-15
2.25942e-15
1.07343e-14
2.63753e-14
1.14459e-14
4.96442e-15
5.00618e-15
5.5855e-15
1.39744e-14
1.53613e-14
1.86009e-14
1.59801e-14
1.46173e-14
1.67806e-14
1.20223e-14
3.34819e-15
5.77778e-15
1.53065e-14
2.92249e-15
3.00382e-15
7.34816e-15
5.01332e-15
2.96394e-15
-5.51891e-16
3.19756e-15
4.11337e-15
-4.81246e-15
-5.82317e-15
1.90364e-15
6.31982e-15
-1.23397e-14
-5.16538e-15
-1.04985e-14
6.15842e-16
-5.28865e-15
1.88223e-15
8.44747e-16
-6.85292e-15
2.00486e-15
-7.05666e-15
-2.05564e-15
1.08691e-14
3.25494e-14
6.40526e-15
1.80162e-14
-1.52052e-14
2.09923e-15
4.79686e-15
2.12795e-15
8.5913e-15
-9.92868e-15
4.91006e-15
-4.09998e-15
2.33039e-15
-4.23511e-16
5.88189e-15
1.32148e-14
7.50107e-15
1.92172e-15
7.72763e-15
-2.51847e-15
3.62428e-15
9.17425e-15
1.78587e-14
7.74678e-15
4.82409e-15
5.25999e-15
7.15767e-15
1.45845e-14
1.82551e-14
1.72385e-14
1.62627e-14
1.8689e-14
1.35695e-14
9.14221e-15
1.04412e-14
-6.57215e-16
1.14459e-14
7.54016e-15
2.45932e-15
4.24928e-15
9.94896e-16
6.00174e-15
3.36607e-15
-1.56138e-15
2.90068e-15
3.60789e-15
-3.97176e-15
-3.24084e-17
8.82668e-15
-6.89198e-15
-9.36595e-15
-6.44511e-15
9.80944e-16
-8.85065e-16
-4.2008e-15
3.35721e-15
-5.07561e-15
-6.44849e-15
-8.4103e-17
-3.41886e-15
1.06967e-14
7.08644e-15
1.28027e-14
6.88081e-15
5.67707e-15
-2.15767e-15
-4.56202e-15
4.7789e-16
2.23492e-15
-5.95099e-15
3.84618e-15
-1.99509e-15
1.25927e-14
-1.59019e-15
-2.34898e-15
1.31251e-14
4.1867e-15
-9.36163e-16
1.19496e-14
4.1335e-15
5.60036e-15
7.5464e-15
9.63209e-15
1.16733e-14
6.42237e-15
1.34727e-16
7.19018e-15
1.69697e-14
2.33807e-14
1.50286e-14
1.64203e-14
1.59996e-14
1.37093e-14
1.30935e-14
8.97324e-15
-2.7276e-15
1.17707e-14
1.19963e-15
3.84691e-15
3.43054e-15
7.56066e-15
6.49973e-15
4.57777e-15
2.19701e-15
-2.55871e-15
3.7978e-15
-1.81389e-15
-1.085e-15
4.88548e-15
1.25149e-15
-6.24926e-15
-8.21458e-15
-2.67047e-15
-5.52415e-15
-4.91114e-15
-1.17971e-15
1.0243e-15
-5.80891e-15
1.70493e-15
5.8385e-15
1.10757e-14
6.02438e-15
1.22306e-14
1.12867e-14
2.54857e-15
-4.1418e-15
5.9787e-17
1.37384e-14
-3.69379e-15
-8.99298e-15
1.03689e-16
6.72505e-15
1.64131e-14
-2.60572e-15
-4.79381e-15
4.1161e-15
2.39624e-15
3.23719e-15
4.8492e-15
7.44884e-15
1.19902e-14
8.30664e-15
8.54511e-16
1.41132e-14
5.97827e-15
2.11845e-15
9.92668e-15
1.36358e-14
2.38833e-14
1.03988e-14
1.78287e-14
1.82636e-14
1.39627e-14
9.75151e-15
1.02003e-14
-7.17544e-15
8.06677e-15
4.03823e-15
1.94286e-15
3.71369e-15
1.47992e-14
7.8906e-15
4.51332e-15
-1.93101e-15
-1.32576e-15
5.15881e-15
-9.64147e-16
-2.71215e-15
1.43583e-15
3.27464e-15
-9.47871e-15
-7.27726e-15
-3.27075e-15
-1.0591e-14
-3.40364e-15
1.49022e-15
9.11963e-15
2.77761e-16
-8.35792e-15
1.10501e-14
4.70485e-15
1.04694e-14
1.08841e-14
1.54331e-14
6.63441e-15
-3.80915e-15
5.66624e-16
9.64842e-15
-1.09943e-14
-4.2614e-15
5.1899e-15
8.74195e-15
1.51433e-14
-6.57351e-15
-5.82338e-15
4.49972e-15
2.44316e-15
5.8948e-15
-5.43682e-15
8.74852e-15
1.62334e-14
1.20724e-14
-3.0823e-16
8.29895e-15
1.76019e-15
3.37102e-15
1.41304e-14
1.82433e-14
1.81501e-14
1.09479e-14
1.28915e-14
1.88593e-14
1.35758e-14
1.12146e-14
9.00528e-15
-4.06289e-15
3.81247e-15
5.92794e-15
1.43786e-15
9.59404e-16
1.71676e-14
1.46605e-14
-7.00202e-16
-7.29975e-16
2.01415e-15
4.01504e-16
-4.75505e-15
-1.68661e-15
2.1886e-15
2.84168e-15
-6.07119e-15
-5.02594e-15
-3.32176e-15
-1.06706e-14
-1.61283e-15
-5.95157e-15
1.45606e-14
-6.88681e-16
-5.03787e-15
9.20008e-15
4.75723e-15
7.20127e-15
1.89984e-14
1.92419e-14
-8.81226e-16
-3.78209e-15
4.49805e-15
4.48722e-15
-1.96879e-14
1.23436e-15
1.47168e-14
5.35843e-15
1.80108e-14
-8.39427e-15
1.94017e-16
4.56808e-15
-8.07684e-16
9.14085e-15
-1.15852e-14
1.12966e-14
2.06714e-14
7.6286e-15
-1.74213e-15
6.59888e-15
-9.46375e-17
4.89096e-15
1.8492e-14
1.89136e-14
1.72471e-14
6.49237e-15
1.13584e-14
1.92988e-14
1.306e-14
1.19472e-14
1.12908e-14
-1.74383e-15
6.22324e-15
1.93696e-15
-5.68079e-15
-4.23425e-16
1.76234e-14
1.75419e-14
1.95353e-15
1.50556e-15
1.56404e-15
6.32476e-16
-2.38423e-15
-3.71943e-15
4.13139e-15
3.10716e-16
-1.75856e-15
-4.06297e-15
1.22481e-15
-9.0085e-15
-8.78386e-15
-2.54146e-15
1.01284e-14
3.8741e-17
5.07917e-15
9.62309e-15
-1.11078e-15
3.73448e-15
1.8863e-14
2.02867e-14
-5.98963e-15
9.9458e-15
-4.14898e-15
2.36925e-15
-2.29507e-14
6.96184e-15
1.86814e-14
3.45028e-15
1.66277e-14
-1.08095e-14
1.32583e-16
1.0112e-14
9.24687e-16
5.86831e-15
-1.13355e-14
1.19631e-14
2.84519e-14
1.22173e-16
-1.13462e-14
9.36361e-15
7.09502e-15
6.617e-15
1.6952e-14
1.55648e-14
1.36928e-14
8.73459e-15
1.2834e-14
2.10408e-14
1.36797e-14
1.11935e-14
6.0848e-15
3.53203e-15
3.37498e-15
8.75437e-16
-8.47702e-15
-1.92842e-15
1.86866e-14
1.7861e-14
1.45984e-14
5.73502e-16
-1.71893e-15
-2.92485e-15
-3.07146e-15
1.11908e-14
-2.31287e-15
-2.20401e-15
-1.33467e-15
8.78453e-16
-1.48877e-14
-2.53742e-15
2.14969e-15
-1.67276e-15
-3.22746e-15
8.83292e-16
1.26284e-15
-1.85457e-15
1.28025e-15
-4.24724e-16
4.21659e-15
-5.49865e-15
1.74208e-14
1.86419e-14
9.23776e-15
-4.66042e-15
1.02096e-14
3.96379e-15
1.64411e-14
1.4799e-14
1.28899e-14
7.6078e-15
4.18699e-15
6.43737e-15
7.37279e-15
2.44694e-15
6.71927e-15
2.05015e-14
1.62131e-14
1.03784e-14
1.33429e-14
7.91243e-15
4.8883e-15
4.05569e-15
1.87288e-15
2.01698e-14
4.87676e-15
6.60651e-15
8.09449e-15
1.03659e-14
1.11871e-14
1.62939e-14
2.17866e-14
3.9721e-15
8.61712e-15
6.57277e-15
7.43784e-16
-3.12882e-15
5.40183e-15
1.8429e-15
4.13677e-16
9.91949e-16
2.2689e-15
-3.82178e-15
2.61223e-15
2.32961e-15
2.37642e-15
-9.22723e-15
2.88945e-16
4.09552e-15
-1.37439e-14
-7.63338e-15
3.87874e-15
-5.41137e-15
1.56479e-15
-1.66562e-15
-2.68981e-16
-3.21979e-15
5.44332e-15
2.39078e-15
6.6588e-15
-1.66045e-16
1.38804e-14
1.55351e-14
1.09122e-14
-9.81956e-16
1.07656e-14
5.93224e-15
1.57062e-14
8.10971e-15
8.73417e-15
9.71279e-15
6.42275e-15
4.27615e-15
5.84357e-15
5.76378e-15
1.29639e-14
1.84536e-14
1.67847e-14
1.05148e-14
1.50179e-14
6.72264e-15
5.82279e-15
1.65531e-15
3.27903e-15
2.1852e-14
1.0184e-14
4.69589e-15
8.33279e-15
1.13444e-14
9.00949e-15
1.43117e-14
2.151e-14
6.83427e-15
6.61565e-15
8.48808e-15
2.58466e-15
-6.58701e-15
3.82527e-15
4.9099e-15
-1.03329e-15
-4.26182e-16
2.36571e-15
-3.56879e-15
2.57405e-16
3.46646e-15
5.94074e-15
-1.42414e-14
-2.14067e-15
2.30689e-15
-8.23769e-15
-9.49316e-15
-6.21306e-16
-6.40413e-15
-2.29376e-15
1.76948e-15
1.38778e-15
-4.38047e-15
5.05725e-15
2.13738e-16
8.66361e-15
-3.20047e-16
1.51687e-14
1.552e-14
1.2163e-14
-5.22276e-16
9.60291e-15
4.67958e-15
1.36079e-14
1.48684e-14
8.64911e-15
7.8141e-15
3.90871e-15
5.65662e-15
4.57582e-15
1.153e-14
1.45525e-14
1.40157e-14
1.86065e-14
9.11108e-15
1.41239e-14
4.68128e-15
6.87612e-15
3.9947e-15
4.29282e-15
1.58111e-14
1.47626e-14
6.68962e-15
9.05264e-15
1.24631e-14
1.19385e-14
1.39331e-14
1.72098e-14
7.01213e-15
4.02671e-15
1.26007e-14
3.11569e-15
-1.08342e-14
4.21005e-15
4.06734e-15
3.15215e-15
-3.13126e-15
2.58562e-15
-1.31755e-15
-2.12549e-15
8.24737e-15
9.49172e-15
-1.7375e-14
-2.28739e-15
-1.894e-15
-7.40965e-15
-8.14981e-15
-3.82685e-15
1.89148e-15
-4.15724e-15
-1.90738e-15
-9.33699e-17
-1.03791e-14
8.81756e-15
-9.51932e-16
1.1781e-14
3.76845e-15
1.26654e-14
1.80666e-14
1.25213e-14
8.03579e-17
6.63091e-15
3.46151e-15
1.20877e-14
1.61082e-14
7.52994e-15
8.68559e-16
2.17968e-15
8.70262e-15
8.02841e-15
8.4978e-15
1.39931e-14
1.28233e-14
1.37244e-14
3.25667e-15
9.31935e-15
6.94482e-15
1.02561e-14
3.55711e-15
3.17456e-15
1.8235e-14
1.3965e-14
5.64534e-15
9.31524e-15
1.25971e-14
1.54546e-14
1.50104e-14
1.35327e-14
7.68811e-15
6.16274e-15
9.62158e-15
4.55563e-15
-6.85665e-15
1.6005e-15
-8.78801e-16
4.26457e-15
5.60658e-15
2.83584e-15
-3.13066e-15
-5.89846e-15
1.12939e-14
4.47672e-15
-7.15055e-15
-3.55031e-15
-4.12956e-15
-1.0029e-14
-7.89947e-15
-1.53645e-15