/*--------------------------------*- C++ -*----------------------------------*\
  =========                 |
  \\      /  F ield         | OpenFOAM: The Open Source CFD Toolbox
   \\    /   O peration     | Website:  https://openfoam.org
    \\  /    A nd           | Version:  13
     \\/     M anipulation  |
\*---------------------------------------------------------------------------*/
FoamFile
{
    format      ascii;
    class       volVectorField;
    location    "1";
    object      U;
}
// * * * * * * * * * * * * * * * * * * * * * * * * * * * * * * * * * * * * * //

dimensions      [0 1 -1 0 0 0 0];

internalField   nonuniform List<vector> 
54636
(
(20 4.84142e-17 -7.21889e-17)
(20 -3.08038e-17 3.43225e-17)
(20 1.54221e-17 -5.10793e-17)
(20 1.1097e-16 6.76625e-17)
(20 -1.03455e-16 9.82982e-17)
(20 -1.51149e-16 -1.53567e-16)
(20 2.37479e-17 -1.80124e-16)
(20 4.62743e-17 1.23924e-16)
(20 1.7242e-16 4.71453e-17)
(20 -1.92324e-17 -1.51112e-17)
(20 3.59088e-17 -3.03943e-17)
(20 2.42767e-17 -5.08595e-17)
(20 1.50588e-16 -2.06734e-17)
(20 -1.08328e-16 -1.28674e-16)
(20 -1.12867e-16 7.31776e-17)
(20 8.26528e-17 1.12256e-16)
(20 -4.49232e-17 -7.89989e-17)
(20 7.09667e-17 5.85606e-17)
(20 -6.43999e-18 9.64844e-17)
(20 -7.6924e-17 -3.91788e-17)
(20 -1.10842e-16 1.20738e-16)
(20 8.44232e-17 3.01704e-17)
(20 -1.24094e-16 -2.86689e-16)
(20 -1.16652e-18 -1.3997e-17)
(20 1.63504e-16 1.46059e-16)
(20 5.36083e-17 7.62597e-17)
(20 -1.09356e-18 -1.09945e-16)
(20 1.76072e-17 -3.16895e-17)
(20 -9.87916e-17 3.94105e-17)
(20 -5.27156e-19 5.18696e-17)
(20 -1.98891e-16 -4.75151e-17)
(20 1.80652e-17 -3.02532e-17)
(20 -1.08385e-16 -6.69532e-17)
(20 -7.05065e-18 1.76614e-17)
(20 8.79988e-17 1.54116e-16)
(20 -7.12372e-17 -1.27132e-16)
(20 1.75735e-16 6.05756e-17)
(20 -1.84153e-16 -4.55728e-17)
(20 7.01051e-17 -5.56917e-17)
(20 6.37141e-17 1.53306e-16)
(20 6.46875e-17 4.00499e-18)
(20 -1.39294e-17 2.84867e-17)
(20 1.07077e-17 1.76434e-18)
(20 -9.26477e-17 -8.49308e-17)
(20 -2.11447e-17 6.09951e-18)
(20 9.23307e-17 1.03033e-16)
(20 9.75589e-17 8.28187e-17)
(20 -8.43303e-17 -1.20048e-16)
(20 9.86879e-17 1.17624e-16)
(20 -3.29331e-17 1.5215e-17)
(20 -1.16684e-16 -8.83705e-17)
(20 -1.00126e-17 6.4016e-18)
(20 -1.75434e-17 4.71202e-17)
(20 2.63871e-17 -4.64842e-17)
(20 1.27449e-16 5.83561e-17)
(20 -9.18653e-17 -6.68894e-17)
(20 -4.97399e-18 -1.49702e-16)
(20 8.72993e-17 7.61865e-17)
(20 -5.61006e-17 6.3862e-17)
(20 1.02832e-16 6.99459e-17)
(20 3.58781e-17 7.16511e-18)
(20 -6.29879e-17 -2.1931e-17)
(20 6.26822e-17 1.26895e-17)
(20 1.93615e-16 -8.25146e-17)
(20 -5.02032e-17 1.82065e-16)
(20 -2.11651e-16 6.75407e-18)
(20 -8.55189e-17 -1.76729e-16)
(20 1.69822e-16 1.1711e-16)
(20 1.95043e-16 -4.59222e-17)
(20 -7.92073e-17 -8.73301e-18)
(20 -1.31812e-16 -6.02955e-17)
(20 1.57042e-16 -4.88565e-18)
(20 2.38466e-16 -7.58519e-17)
(20 -2.79615e-16 -1.0646e-16)
(20 -1.2586e-16 1.40528e-16)
(20 1.66693e-16 -2.98028e-17)
(20 -8.56174e-17 -4.0719e-17)
(20 1.42335e-16 4.85306e-18)
(20 -1.88228e-18 1.0141e-16)
(20 -2.54218e-16 -3.11939e-17)
(20 -6.09229e-17 1.92807e-16)
(20 1.27591e-16 -1.02548e-16)
(20 -3.22662e-16 -9.62373e-17)
(20 7.40255e-18 -4.23773e-17)
(20 2.6465e-16 7.24031e-17)
(20 -2.58022e-17 2.82312e-17)
(20 -6.29521e-17 -1.06338e-16)
(20 2.21544e-16 5.4538e-17)
(20 -1.92802e-16 1.18876e-16)
(20 -2.4188e-17 -1.62412e-18)
(20 -1.66304e-16 1.02241e-16)
(20 -1.35464e-16 -9.6447e-17)
(20 9.78635e-17 5.67565e-18)
(20 5.22047e-17 -3.24809e-17)
(20 2.13813e-16 9.82802e-17)
(20 -1.24766e-16 5.83348e-18)
(20 2.09422e-16 -1.92661e-16)
(20 -2.31427e-16 1.10675e-16)
(20 -2.74181e-17 -7.93985e-17)
(20 7.33918e-18 8.23891e-17)
(20 1.23536e-16 -3.19988e-17)
(20 -2.73483e-17 2.72835e-19)
(20 4.11438e-17 2.5085e-18)
(20 -1.43456e-16 -1.30959e-17)
(20 -6.43208e-17 8.57098e-18)
(20 1.21972e-16 3.63578e-17)
(20 1.11151e-16 5.48961e-17)
(20 -6.0921e-17 -1.17964e-16)
(20 4.21558e-17 -3.76553e-17)
(20 3.68678e-17 9.53919e-17)
(20 -1.54667e-16 -5.8693e-17)
(20 -1.16569e-17 4.58146e-18)
(20 6.21467e-17 1.38594e-16)
(20 6.52767e-17 -3.86405e-17)
(20 8.87234e-17 -6.88895e-17)
(20 -1.73159e-16 8.29346e-18)
(20 -1.01002e-16 -8.57163e-17)
(20 1.61342e-16 9.75412e-19)
(20 -4.11339e-17 1.11985e-16)
(20 2.02814e-16 7.3411e-18)
(20 3.62841e-17 1.33831e-16)
(20 -3.25169e-17 -1.45586e-17)
(20 1.83068e-16 5.22358e-17)
(20 4.96621e-17 -3.6352e-17)
(20 1.98418e-16 6.22807e-17)
(20 -7.1541e-17 8.6157e-19)
(20 -2.73378e-16 1.07066e-17)
(20 2.8533e-16 5.94006e-17)
(20 -1.10797e-16 -9.32437e-17)
(20 -1.08381e-16 2.93555e-17)
(20 -1.18084e-16 4.76796e-17)
(20 3.21272e-17 -1.0415e-16)
(20 1.80923e-16 -7.19532e-17)
(20 -2.63863e-16 8.8636e-17)
(20 1.47146e-16 6.24789e-17)
(20 5.9708e-17 -4.42926e-17)
(20 -2.15144e-16 -3.74435e-17)
(20 1.57845e-16 4.62861e-18)
(20 -2.59885e-17 1.63948e-17)
(20 -6.40047e-17 1.40545e-16)
(20 2.35861e-16 9.47911e-17)
(20 9.84331e-18 -1.05769e-16)
(20 -3.55082e-16 3.25413e-17)
(20 7.34814e-17 1.12645e-17)
(20 1.84799e-16 4.61795e-17)
(20 -6.90444e-17 3.65741e-17)
(20 -1.07693e-16 -1.35835e-16)
(20 1.26588e-16 1.5968e-18)
(20 -2.08163e-16 2.12876e-16)
(20 1.39058e-16 -7.45923e-17)
(20 -3.32158e-18 9.30106e-17)
(20 -2.21911e-16 -4.92026e-17)
(20 2.2858e-16 -5.22329e-17)
(20 1.81981e-16 -9.42516e-17)
(20 1.74339e-16 6.06803e-17)
(20 6.89484e-17 8.32381e-18)
(20 -8.43698e-17 -1.4503e-16)
(20 -4.50771e-18 1.03837e-16)
(20 -2.08868e-16 -1.86824e-17)
(20 -1.57579e-18 1.17891e-16)
(20 -3.93354e-18 -9.07117e-17)
(20 -1.9422e-17 -2.03576e-17)
(20 1.4686e-16 -1.98752e-17)
(20 -1.44517e-16 1.23201e-17)
(20 -1.43124e-16 1.66304e-17)
(20 8.96568e-17 -5.98313e-18)
(20 1.76575e-17 1.03617e-17)
(20 3.29338e-17 -2.27625e-17)
(20 -7.54502e-17 -1.07348e-17)
(20 1.43182e-16 1.74794e-17)
(20 -6.89496e-17 -5.30241e-17)
(20 -5.29458e-19 3.34496e-18)
(20 7.60545e-17 1.07802e-16)
(20 6.19762e-17 -1.10694e-17)
(20 -2.05009e-17 -3.60926e-17)
(20 -2.06572e-16 2.98651e-17)
(20 -1.92393e-16 -4.17583e-18)
(20 7.43075e-17 -9.9373e-17)
(20 6.17996e-17 1.29408e-16)
(20 1.13774e-16 -5.35507e-17)
(20 -1.65437e-18 3.34688e-17)
(20 -1.93066e-17 -6.80626e-17)
(20 1.44552e-16 -3.62511e-17)
(20 5.51374e-17 -3.51111e-17)
(20 1.86479e-16 -4.7561e-18)
(20 -2.47099e-17 -5.24336e-17)
(20 -1.5966e-16 1.56824e-16)
(20 -1.86182e-17 -5.37423e-17)
(20 -8.99095e-17 -7.00785e-17)
(20 9.91524e-17 6.45032e-17)
(20 9.59209e-17 3.31204e-17)
(20 -6.81941e-17 4.4763e-17)
(20 2.03462e-16 -2.90912e-18)
(20 -2.47219e-17 9.681e-17)
(20 6.38514e-17 -9.09803e-17)
(20 2.88235e-17 -6.80222e-17)
(20 -2.37067e-16 1.28596e-16)
(20 6.80251e-17 6.66822e-18)
(20 2.30126e-16 -3.67606e-17)
(20 1.56074e-16 4.23591e-17)
(20 -5.60743e-18 -5.83377e-17)
(20 -1.65559e-17 -1.62128e-17)
(20 -1.43621e-16 1.61038e-16)
(20 1.73459e-16 4.14191e-17)
(20 -3.0049e-17 -8.20395e-17)
(20 1.55012e-16 3.26625e-17)
(20 -1.05682e-16 5.71773e-17)
(20 -1.55832e-16 7.10689e-18)
(20 1.24282e-17 2.13133e-16)
(20 9.30355e-17 -2.54735e-16)
(20 1.60775e-17 2.95477e-17)
(20 -1.12614e-16 -2.41775e-17)
(20 1.51513e-16 7.10682e-17)
(20 2.1647e-16 -2.04942e-17)
(20 2.08614e-16 8.93189e-18)
(20 1.04153e-16 -1.94047e-17)
(20 -1.26782e-16 -7.26823e-17)
(20 -7.24961e-18 -3.75526e-18)
(20 -9.21754e-17 6.42365e-17)
(20 -9.36911e-17 2.56889e-17)
(20 2.89361e-17 2.07664e-17)
(20 -1.99495e-17 -1.85584e-17)
(20 1.28864e-16 -7.58958e-17)
(20 -6.98898e-17 6.59624e-17)
(20 -6.0346e-17 4.0515e-17)
(20 1.64247e-17 -7.93334e-17)
(20 -4.93038e-17 1.34977e-17)
(20 -5.20592e-19 5.0678e-18)
(20 -9.89931e-18 -3.4995e-17)
(20 -2.89388e-18 -2.75668e-17)
(20 1.01057e-16 3.26891e-17)
(20 -4.81226e-18 9.55343e-18)
(20 -6.06384e-17 7.36539e-17)
(20 1.82556e-17 5.09805e-18)
(20 1.15729e-16 -5.44491e-17)
(20 -8.85777e-17 5.47172e-17)
(20 -2.09741e-16 1.34009e-18)
(20 7.20738e-17 -4.13776e-17)
(20 3.49576e-17 1.38401e-17)
(20 -1.20729e-16 -3.75428e-17)
(20 1.66478e-18 9.24596e-17)
(20 -8.6912e-17 -1.05828e-16)
(20 -4.95156e-17 -5.83694e-17)
(20 7.436e-17 -7.47669e-17)
(20 -3.03845e-17 4.49883e-17)
(20 6.62001e-17 -1.02639e-16)
(20 8.0558e-17 1.49588e-16)
(20 -2.54899e-16 5.85115e-17)
(20 -4.53764e-17 -1.2376e-16)
(20 2.84215e-17 -1.80501e-16)
(20 8.98126e-17 -2.06183e-17)
(20 3.29245e-17 5.48405e-17)
(20 7.0819e-18 -4.54838e-17)
(20 1.45919e-16 -7.72616e-17)
(20 -5.01204e-17 -3.7741e-17)
(20 -1.44342e-17 4.40495e-17)
(20 -1.26814e-17 -5.97376e-17)
(20 1.2202e-16 3.62982e-17)
(20 8.00445e-17 3.48365e-17)
(20 1.08405e-16 2.32726e-17)
(20 -1.22339e-16 6.72247e-17)
(20 -4.10105e-17 1.75725e-17)
(20 -6.84869e-17 -1.13003e-18)
(20 1.22585e-16 -5.44222e-18)
(20 2.23633e-16 5.14506e-17)
(20 -3.09732e-17 -9.56143e-18)
(20 3.40841e-17 1.72619e-17)
(20 -2.33962e-16 -4.23506e-17)
(20 2.20438e-16 1.25797e-16)
(20 -1.85031e-16 -1.22238e-16)
(20 1.35824e-16 4.32577e-17)
(20 -6.30351e-17 1.28709e-17)
(20 1.45966e-16 4.37531e-17)
(20 1.19947e-16 -9.2738e-17)
(20 1.58434e-16 -1.54103e-16)
(20 4.04777e-17 1.06252e-16)
(20 -2.14884e-16 -1.17148e-16)
(20 2.56765e-17 3.27911e-17)
(20 1.52074e-16 1.73476e-17)
(20 -8.13345e-18 7.74794e-17)
(20 -3.24892e-17 -4.38036e-18)
(20 -5.91261e-17 -8.49221e-18)
(20 -3.1793e-17 -5.47523e-17)
(20 1.20108e-18 -1.31202e-17)
(20 3.90995e-17 -6.62427e-18)
(20 2.69821e-17 -5.10442e-17)
(20 -2.66709e-17 1.09365e-16)
(20 -7.5291e-17 1.82608e-17)
(20 3.79573e-17 5.9582e-18)
(20 -1.16676e-16 -2.50005e-17)
(20 1.06872e-16 -8.71967e-17)
(20 1.11771e-16 9.267e-17)
(20 -1.09953e-16 9.87486e-18)
(20 -7.39622e-17 3.36671e-17)
(20 1.55657e-16 -9.19653e-17)
(20 3.76077e-17 7.4344e-18)
(20 -1.08981e-16 2.54721e-17)
(20 6.90023e-17 -5.58064e-17)
(20 9.1763e-17 6.92947e-17)
(20 -1.04564e-16 7.38616e-17)
(20 1.02583e-16 -9.96924e-18)
(20 6.7357e-17 3.46151e-17)
(20 -1.7517e-16 -3.0769e-17)
(20 -2.35094e-17 -1.06175e-16)
(20 -1.33123e-16 1.96179e-16)
(20 2.50362e-17 -1.66088e-16)
(20 2.39608e-16 6.4482e-17)
(20 -7.26829e-18 1.09094e-16)
(20 -1.6426e-16 -1.23664e-16)
(20 -1.86268e-16 -5.86261e-17)
(20 -6.56206e-18 1.54801e-17)
(20 -4.06051e-18 3.61355e-17)
(20 -4.26827e-17 4.32904e-17)
(20 9.41328e-17 -4.01874e-18)
(20 -2.65338e-17 -6.84378e-17)
(20 5.84859e-17 1.10142e-17)
(20 -4.36156e-17 -3.41431e-18)
(20 1.39227e-16 -9.84816e-17)
(20 -1.28831e-16 3.25091e-18)
(20 1.70522e-16 1.05624e-16)
(20 3.53674e-17 8.69254e-17)
(20 -2.10116e-17 9.83643e-17)
(20 9.04919e-17 -8.12583e-17)
(20 -6.98014e-17 -3.79385e-17)
(20 2.37577e-16 -1.28604e-16)
(20 -9.50285e-17 1.14083e-16)
(20 1.53756e-16 -5.68771e-18)
(20 -1.58365e-17 7.9438e-17)
(20 -7.86734e-17 7.07864e-17)
(20 -1.20984e-16 -7.83845e-18)
(20 2.54731e-17 -4.63387e-17)
(20 6.79729e-17 7.98361e-17)
(20 -4.55968e-17 4.11318e-17)
(20 1.36397e-16 -1.06265e-16)
(20 1.06762e-17 -8.91786e-17)
(20 6.82944e-17 6.3088e-18)
(20 -1.85992e-16 -1.91666e-18)
(20 9.57738e-17 1.30606e-16)
(20 3.65522e-17 -1.2304e-16)
(20 1.23375e-16 -5.48319e-17)
(20 -1.72248e-16 1.44702e-16)
(20 -1.3865e-16 6.37249e-19)
(20 -1.05541e-16 -8.72339e-17)
(20 -1.02228e-16 1.69873e-17)
(20 6.92686e-17 1.02067e-16)
(20 1.03935e-16 -1.25665e-16)
(20 2.74092e-17 -2.11029e-18)
(20 -4.50361e-18 5.74104e-17)
(20 1.96442e-17 5.49667e-17)
(20 -1.04061e-16 -9.81397e-18)
(20 1.65962e-17 -4.39004e-17)
(20 4.93006e-17 3.11143e-18)
(20 -8.14796e-17 -3.35104e-17)
(20 4.99288e-18 3.57078e-17)
(20 9.60465e-18 -4.47481e-17)
(20 -1.08958e-17 1.10861e-17)
(20 9.83885e-17 5.52574e-17)
(20 -1.01282e-16 -7.89599e-17)
(20 6.94489e-18 -2.62072e-17)
(20 -1.37328e-17 3.86376e-17)
(20 1.47256e-16 -5.8371e-17)
(20 6.63503e-17 -1.97336e-17)
(20 -1.58641e-16 7.62355e-17)
(20 -1.34088e-16 1.84543e-17)
(20 2.2021e-17 6.39826e-17)
(20 1.66326e-17 -2.15039e-17)
(20 1.02336e-16 -1.5493e-16)
(20 1.33232e-16 -5.53592e-17)
(20 -7.12969e-17 1.03862e-16)
(20 -1.65635e-16 -4.47509e-17)
(20 -4.76349e-17 -3.69821e-17)
(20 -1.01977e-16 6.31502e-17)
(20 -2.32928e-16 -8.37547e-17)
(20 -3.69164e-17 -4.84117e-17)
(20 -1.56671e-17 1.07466e-17)
(20 -4.4836e-17 1.59569e-17)
(20 2.31946e-17 5.70649e-17)
(20 -1.05691e-16 -5.74786e-18)
(20 5.21375e-17 -1.41826e-17)
(20 -1.07612e-16 3.4612e-18)
(20 -2.23878e-17 -5.27758e-17)
(20 7.79033e-17 4.89551e-17)
(20 2.36151e-16 -1.48213e-16)
(20 -6.24077e-17 8.52896e-17)
(20 -1.42963e-16 -1.3544e-16)
(20 4.52417e-17 3.31506e-18)
(20 1.5673e-16 -9.94492e-18)
(20 1.27522e-16 -2.5725e-17)
(20 -2.95591e-16 1.55931e-16)
(20 1.05126e-16 -5.58312e-17)
(20 -2.68908e-17 1.13085e-16)
(20 1.7838e-16 5.45813e-17)
(20 -6.53638e-17 7.91973e-17)
(20 9.01814e-17 -2.03243e-16)
(20 1.44209e-17 -8.13538e-17)
(20 -9.73504e-17 1.31397e-17)
(20 7.4463e-18 4.63226e-17)
(20 1.12307e-16 1.05305e-16)
(20 -2.39814e-16 -8.0171e-17)
(20 -2.60627e-17 -8.02874e-17)
(20 6.24004e-17 2.19919e-16)
(20 -6.54733e-17 5.80455e-17)
(20 -2.29855e-16 -1.31522e-16)
(20 -8.06852e-17 4.52494e-17)
(20 6.20782e-17 5.51789e-17)
(20 2.55737e-17 -9.95982e-17)
(20 -9.01543e-17 4.43086e-17)
(20 1.21527e-16 -3.29647e-17)
(20 9.1549e-18 1.99606e-17)
(20 -1.14148e-17 6.41146e-17)
(20 -2.94318e-17 -1.20483e-16)
(20 -7.44957e-17 -1.21513e-17)
(20 -5.35033e-17 -2.6471e-17)
(20 7.68941e-17 5.0439e-17)
(20 -2.83825e-17 1.85016e-17)
(20 -3.08585e-17 -2.87668e-17)
(20 1.06845e-16 3.74637e-17)
(20 -1.49516e-16 -1.37373e-17)
(20 -2.32921e-17 3.76529e-17)
(20 5.98305e-18 1.18393e-16)
(20 1.47561e-16 4.33919e-17)
(20 4.90022e-19 8.54267e-17)
(20 -1.62804e-16 5.56975e-17)
(20 -1.00848e-16 9.61947e-17)
(20 1.03534e-16 4.34842e-18)
(20 1.25951e-16 -1.00345e-16)
(20 1.22838e-16 -7.17753e-17)
(20 -7.9571e-17 -6.97981e-17)
(20 3.94737e-17 -3.00186e-17)
(20 -1.61508e-17 1.0132e-16)
(20 8.42322e-17 8.729e-18)
(20 -2.25987e-16 6.30058e-17)
(20 -4.28968e-17 6.33907e-18)
(20 3.01677e-17 1.09543e-16)
(20 6.51552e-17 -3.15136e-17)
(20 -5.28149e-17 -3.76753e-17)
(20 1.45064e-16 1.0181e-16)
(20 -2.79213e-17 -7.74555e-17)
(20 -1.91297e-16 -6.34338e-17)
(20 3.80242e-18 -8.71467e-17)
(20 9.02538e-17 7.10682e-17)
(20 -1.18361e-17 -5.22286e-17)
(20 1.48718e-16 -7.10754e-17)
(20 2.00088e-17 5.06086e-17)
(20 -5.35958e-17 -5.38103e-17)
(20 1.08977e-16 9.17614e-17)
(20 -7.46253e-17 -1.17372e-16)
(20 8.67612e-17 2.48437e-17)
(20 1.97589e-17 1.84568e-16)
(20 1.06994e-16 -3.19407e-17)
(20 1.64604e-16 4.03284e-17)
(20 9.63068e-17 -7.58198e-18)
(20 2.59938e-17 6.63321e-17)
(20 -1.33159e-16 -7.78406e-17)
(20 -1.28256e-16 -1.00942e-16)
(20 -6.56525e-17 2.31779e-17)
(20 2.1346e-17 -3.56456e-17)
(20 7.6884e-17 -2.81694e-17)
(20 3.37455e-17 1.69694e-16)
(20 -1.188e-16 -1.12744e-16)
(20 1.09626e-16 8.07958e-17)
(20 4.7594e-17 3.66607e-17)
(20 -1.09556e-16 -8.11343e-17)
(20 -2.46802e-17 1.33431e-16)
(20 -1.31952e-16 2.97246e-17)
(20 -2.28135e-17 -1.31252e-16)
(20 -9.9715e-17 6.52951e-17)
(20 -5.51572e-17 -5.06242e-17)
(20 3.4653e-17 1.14677e-17)
(20 3.83739e-17 2.73865e-17)
(20 1.17807e-16 -5.68904e-18)
(20 -1.33567e-16 -6.43096e-17)
(20 -1.03689e-16 1.95155e-17)
(20 -4.62195e-17 3.66409e-17)
(20 -6.71203e-17 -6.20968e-17)
(20 1.39825e-16 3.0297e-17)
(20 -4.77578e-17 4.59576e-17)
(20 -9.71565e-17 -2.10869e-17)
(20 1.45149e-16 2.01913e-17)
(20 4.96544e-17 3.06135e-17)
(20 4.95514e-17 5.12755e-17)
(20 1.50326e-16 5.48538e-17)
(20 -8.20236e-17 7.64021e-17)
(20 7.95606e-17 1.95039e-17)
(20 7.51295e-17 5.18995e-17)
(20 -4.2202e-17 -3.89213e-17)
(20 9.2777e-17 -8.21372e-17)
(20 -7.95921e-17 -2.50542e-17)
(20 1.12991e-18 -8.78659e-17)
(20 1.35417e-16 1.73802e-17)
(20 -4.90202e-18 5.39004e-17)
(20 7.37026e-17 8.39551e-17)
(20 -3.32546e-16 -4.60554e-17)
(20 -1.55303e-17 -6.45953e-17)
(20 -9.56765e-17 -3.00651e-17)
(20 2.00635e-17 -6.58078e-17)
(20 -7.16734e-18 6.4361e-17)
(20 1.45644e-16 3.26468e-17)
(20 -3.93155e-18 -6.2372e-17)
(20 -9.07108e-17 1.55952e-17)
(20 -3.61555e-17 1.24241e-16)
(20 -6.37877e-17 -5.56188e-17)
(20 3.2446e-17 -1.88051e-17)
(20 7.10794e-18 3.35908e-17)
(20 1.28646e-16 -5.19739e-17)
(20 2.53021e-16 1.49398e-16)
(20 -3.31388e-16 -2.78881e-17)
(20 1.78362e-16 -1.37657e-16)
(20 1.55467e-16 1.23541e-16)
(20 7.64693e-17 -2.71373e-17)
(20 1.74254e-16 2.49287e-17)
(20 -5.9151e-17 3.64544e-17)
(20 2.03139e-16 -5.77311e-19)
(20 2.07534e-18 2.61667e-17)
(20 -2.36644e-16 2.09286e-17)
(20 6.99391e-17 5.46849e-17)
(20 -1.66165e-16 -6.05508e-17)
(20 3.40509e-17 1.48947e-17)
(20 1.51339e-16 -1.17412e-16)
(20 5.43385e-17 7.87805e-17)
(20 5.01597e-17 9.58039e-17)
(20 9.13402e-17 3.49129e-17)
(20 -9.59106e-17 -1.2819e-16)
(20 -8.63891e-18 1.13059e-16)
(20 -9.03891e-17 6.20534e-17)
(20 -1.19235e-16 -1.63311e-16)
(20 4.09911e-17 -9.74819e-18)
(20 -9.29578e-17 3.38734e-17)
(20 -5.14803e-17 3.27e-18)
(20 -3.36556e-17 1.43355e-16)
(20 7.27346e-17 -9.1775e-17)
(20 -1.01474e-16 5.44442e-17)
(20 -1.01736e-17 4.54098e-17)
(20 -7.08024e-17 -2.10826e-17)
(20 -1.21926e-16 -9.94779e-18)
(20 1.97137e-16 -6.91691e-17)
(20 -5.38489e-18 5.96231e-17)
(20 -8.92872e-17 -1.95063e-17)
(20 1.51983e-16 3.62035e-17)
(20 1.61152e-16 6.33636e-17)
(20 2.82793e-17 -2.11605e-17)
(20 8.64886e-17 4.49642e-17)
(20 1.48907e-16 7.6285e-17)
(20 1.79454e-17 -7.8918e-17)
(20 3.07187e-16 4.26282e-17)
(20 -2.48908e-16 7.97499e-17)
(20 -1.96997e-16 -7.82509e-17)
(20 -7.1476e-17 -5.59152e-17)
(20 -1.16383e-16 2.69573e-17)
(20 1.86453e-16 5.54716e-17)
(20 -1.67448e-16 -8.45205e-19)
(20 1.65482e-16 -9.8275e-17)
(20 -1.47558e-16 4.28343e-17)
(20 -1.48431e-16 9.75201e-17)
(20 -1.07106e-17 -6.25207e-17)
(20 5.06188e-17 1.07666e-16)
(20 -1.84878e-17 -9.88367e-17)
(20 2.94903e-17 -7.48724e-17)
(20 -2.98684e-17 -4.70732e-18)
(20 9.68151e-17 -1.19768e-16)
(20 3.65206e-17 -8.49311e-18)
(20 -7.13571e-17 -3.94315e-17)
(20 -4.29041e-17 2.9688e-17)
(20 3.15681e-17 5.79139e-17)
(20 2.43056e-16 -2.65716e-17)
(20 1.10015e-16 6.41027e-17)
(20 -3.59496e-17 2.5646e-17)
(20 5.74618e-17 -1.23019e-16)
(20 8.00983e-17 3.02413e-17)
(20 5.28098e-17 -8.2043e-17)
(20 -2.17407e-17 5.14056e-17)
(20 2.56831e-18 9.39402e-17)
(20 2.06032e-16 -1.32558e-16)
(20 1.74238e-16 -3.07252e-17)
(20 -1.83657e-16 4.15029e-17)
(20 -2.09798e-16 -1.79935e-18)
(20 -2.74255e-16 6.31289e-17)
(20 1.03201e-16 -8.59676e-17)
(20 1.5837e-16 -2.18504e-17)
(20 1.09216e-16 4.47878e-17)
(20 5.4769e-17 5.8319e-17)
(20 -3.08783e-17 -1.19666e-16)
(20 -1.72286e-16 -6.30356e-17)
(20 1.26669e-16 5.79286e-17)
(20 8.04539e-17 -3.50861e-17)
(20 -1.36415e-16 -3.83998e-17)
(20 1.78694e-16 1.7747e-17)
(20 1.61491e-16 8.45011e-17)
(20 -1.49385e-16 1.7277e-17)
(20 -1.29883e-16 4.15053e-17)
(20 -6.58079e-17 8.18546e-17)
(20 6.71183e-17 -1.00921e-17)
(20 1.39661e-16 2.29227e-18)
(20 2.41453e-17 -6.32453e-17)
(20 -1.38802e-16 4.32658e-17)
(20 -3.49175e-17 -4.72582e-17)
(20 1.05808e-16 -1.83871e-17)
(20 3.86777e-17 2.66389e-17)
(20 1.98843e-17 -2.79124e-17)
(20 1.64856e-16 -1.72282e-17)
(20 -3.7842e-17 6.48812e-17)
(20 -3.92849e-18 -1.09446e-17)
(20 1.43126e-16 3.84514e-17)
(20 -1.96404e-18 -4.41369e-17)
(20 2.40638e-16 -4.76867e-17)
(20 -2.17068e-16 1.15273e-16)
(20 -1.50064e-16 -3.88453e-17)
(20 -1.80311e-16 4.53399e-17)
(20 1.61403e-17 9.51138e-17)
(20 1.65527e-16 -7.73086e-17)
(20 -2.17478e-16 3.1037e-17)
(20 2.09068e-16 5.29155e-17)
(20 8.22902e-17 -6.89661e-17)
(20 9.77279e-18 -1.32872e-16)
(20 -6.49333e-18 -1.09758e-16)
(20 -8.35607e-17 -1.02439e-16)
(20 -7.90291e-17 3.22435e-17)
(20 -6.10677e-17 -7.95414e-17)
(20 1.01323e-16 -9.98556e-17)
(20 -6.76636e-17 -6.08328e-17)
(20 9.05973e-17 -1.65277e-17)
(20 -6.93312e-17 3.95397e-17)
(20 1.20549e-16 5.56639e-17)
(20 6.34237e-17 2.60125e-17)
(20 7.84503e-17 -8.13654e-17)
(20 -6.231e-17 -5.66277e-19)
(20 1.78709e-16 -9.29627e-17)
(20 9.06148e-17 -2.99363e-17)
(20 6.57092e-17 5.2246e-17)
(20 -1.00951e-16 -4.82707e-17)
(20 -1.06056e-16 9.67955e-17)
(20 1.26622e-16 2.16359e-18)
(20 -7.08288e-17 -1.26102e-16)
(20 5.45526e-17 -5.97827e-17)
(20 5.60448e-17 6.0497e-17)
(20 -2.55769e-16 -1.03411e-17)
(20 5.59989e-17 1.88653e-16)
(20 -1.17284e-16 -1.40676e-16)
(20 1.22442e-16 -6.58785e-17)
(20 -7.69967e-17 4.71557e-17)
(20 4.80092e-17 -1.82022e-17)
(20 -6.07688e-17 4.49773e-17)
(20 -3.37303e-18 -3.83856e-17)
(20 7.98285e-17 -7.51951e-17)
(20 6.26025e-17 -2.53893e-18)
(20 -2.68737e-17 -2.45059e-17)
(20 1.34313e-16 -7.6543e-17)
(20 1.7343e-16 8.21398e-17)
(20 3.45336e-17 3.6514e-17)
(20 -1.04179e-16 3.27617e-17)
(20 3.93375e-17 8.55719e-17)
(20 5.88623e-17 1.38289e-17)
(20 2.70227e-17 -1.01102e-16)
(20 1.18532e-17 -1.07622e-16)
(20 -6.57382e-17 6.31937e-17)
(20 -1.06285e-16 -1.53902e-17)
(20 6.06895e-17 3.15784e-17)
(20 1.18362e-16 6.43581e-18)
(20 -7.00341e-17 -1.21737e-17)
(20 -7.15028e-17 -5.85361e-17)
(20 -4.9273e-17 1.13095e-16)
(20 -2.31917e-16 -1.14812e-16)
(20 6.21331e-17 7.34788e-17)
(20 1.20522e-16 3.70965e-17)
(20 -5.75769e-17 -3.58033e-17)
(20 -1.67261e-16 1.63756e-17)
(20 -1.16975e-16 7.61979e-17)
(20 1.36526e-16 -2.51632e-17)
(20 7.82746e-17 2.68671e-17)
(20 1.14512e-16 -8.98705e-17)
(20 -5.35344e-17 9.39785e-17)
(20 2.11757e-16 -4.05982e-17)
(20 6.74639e-17 6.80131e-17)
(20 9.12961e-18 -4.45925e-17)
(20 -1.29679e-16 7.01008e-17)
(20 -3.77866e-17 1.76613e-17)
(20 1.23264e-16 -1.60491e-17)
(20 2.49052e-16 -1.13109e-16)
(20 -5.36369e-18 1.99053e-16)
(20 -1.99779e-16 -3.05101e-17)
(20 -3.56786e-17 -1.9909e-16)
(20 6.47374e-17 9.32843e-17)
(20 1.39151e-16 -4.7738e-17)
(20 1.09237e-16 1.7063e-17)
(20 -2.5984e-18 4.20302e-17)
(20 -1.27063e-16 7.24063e-17)
(20 1.81034e-16 -1.11012e-16)
(20 -7.56561e-17 -2.07116e-16)
(20 3.01848e-18 1.38818e-16)
(20 -2.27515e-16 -5.67089e-17)
(20 5.29302e-17 3.83061e-17)
(20 7.67349e-18 4.51885e-17)
(20 -7.83019e-17 -3.18298e-18)
(20 -1.18281e-16 -1.70089e-16)
(20 1.38753e-16 -4.86441e-17)
(20 7.6473e-17 -7.27197e-17)
(20 2.56107e-16 1.2636e-16)
(20 -1.05116e-16 9.55569e-17)
(20 -1.2163e-16 -5.62889e-17)
(20 -5.57012e-17 6.83191e-17)
(20 -3.26339e-17 -9.84194e-17)
(20 3.82095e-17 2.5973e-17)
(20 3.18173e-17 -1.7529e-17)
(20 -3.55347e-17 -8.21818e-18)
(20 -1.84133e-17 3.13333e-17)
(20 7.35307e-17 -6.02272e-17)
(20 6.8723e-18 -1.80053e-17)
(20 -3.64426e-17 1.03865e-16)
(20 2.23053e-16 2.66574e-17)
(20 1.49549e-16 1.17741e-17)
(20 -1.47013e-16 -3.28876e-17)
(20 3.21148e-17 6.05836e-18)
(20 -3.65122e-17 -4.60692e-17)
(20 -8.6196e-17 -4.94009e-18)
(20 6.52874e-17 2.97567e-19)
(20 -6.877e-17 2.06318e-17)
(20 4.10426e-17 -2.73301e-17)
(20 1.07231e-16 -5.0512e-17)
(20 -2.03501e-16 -1.27654e-17)
(20 -1.6221e-16 2.29175e-17)
(20 -1.27734e-16 -4.86787e-17)
(20 -2.36596e-16 3.42001e-17)
(20 -2.41694e-17 5.02308e-17)
(20 1.10891e-16 -8.30993e-17)
(20 -2.05553e-16 -5.76439e-17)
(20 -2.82036e-17 4.54226e-17)
(20 -7.58592e-18 8.56215e-17)
(20 2.97134e-16 -2.3223e-17)
(20 -1.90638e-17 7.49637e-17)
(20 9.54045e-17 -8.5936e-17)
(20 9.42491e-17 -1.54359e-18)
(20 -1.95883e-16 -2.65621e-17)
(20 9.14409e-17 -2.43546e-17)
(20 1.71087e-16 -1.11296e-16)
(20 -2.0397e-17 -1.5613e-17)
(20 -2.75814e-18 -1.12115e-16)
(20 -7.75259e-17 -2.50377e-17)
(20 -1.13059e-16 7.5548e-17)
(20 2.24609e-18 -4.28098e-17)
(20 9.95489e-17 9.18142e-17)
(20 -7.25227e-17 -7.84037e-17)
(20 1.84125e-16 -1.05372e-18)
(20 8.33074e-17 4.94429e-17)
(20 -3.28359e-17 -5.71289e-17)
(20 -8.71965e-17 -5.92354e-17)
(20 -2.49813e-16 2.54137e-17)
(20 8.42993e-17 -1.38611e-16)
(20 -1.41665e-18 -4.01945e-17)
(20 5.13078e-17 5.81074e-17)
(20 -7.05214e-17 1.01396e-16)
(20 1.44717e-16 -9.11657e-17)
(20 -5.70446e-18 9.39012e-19)
(20 -2.57851e-16 4.69803e-18)
(20 -1.94178e-16 -6.80247e-17)
(20 4.20451e-17 -2.73521e-17)
(20 2.34765e-16 5.81058e-18)
(20 2.15873e-17 4.88293e-17)
(20 -4.38304e-18 3.49288e-17)
(20 6.69749e-17 4.16588e-18)
(20 7.71256e-17 6.96968e-17)
(20 -1.13458e-16 -2.73027e-17)
(20 -1.97748e-16 -3.19266e-17)
(20 4.65631e-17 -1.00704e-17)
(20 -1.36481e-17 -4.06158e-18)
(20 -9.99575e-17 -1.45231e-17)
(20 2.26991e-17 -7.62071e-17)
(20 -2.08246e-17 3.52942e-17)
(20 -8.26499e-18 4.02498e-17)
(20 2.47429e-16 3.46116e-17)
(20 1.18394e-16 -6.86959e-17)
(20 -1.31033e-16 3.24454e-17)
(20 7.14714e-17 1.81415e-18)
(20 -1.25701e-18 1.23903e-17)
(20 -6.36651e-17 1.38717e-16)
(20 -2.85297e-17 -1.03645e-16)
(20 -7.82037e-17 -1.58421e-17)
(20 2.33994e-17 3.88571e-17)
(20 7.57648e-17 -1.11608e-16)
(20 -2.49349e-16 3.40524e-17)
(20 5.23664e-19 7.61439e-17)
(20 -1.93464e-17 1.62618e-16)
(20 -6.21244e-17 -4.86166e-18)
(20 -1.57977e-16 -3.83304e-18)
(20 -5.04824e-17 -1.67583e-17)
(20 -1.66517e-16 3.20338e-17)
(20 1.47579e-16 -5.77759e-17)
(20 1.51247e-16 -8.08111e-17)
(20 6.00504e-17 -2.59789e-17)
(20 1.0734e-16 3.20601e-17)
(20 -1.4526e-16 -1.39652e-16)
(20 1.01791e-16 1.66541e-16)
(20 -8.04303e-17 1.44776e-17)
(20 -1.44072e-16 -7.95736e-17)
(20 -1.39881e-16 -1.09986e-16)
(20 1.61949e-16 1.7195e-16)
(20 -1.58682e-16 8.56999e-17)
(20 1.30535e-18 -5.49631e-17)
(20 1.11128e-17 1.9555e-17)
(20 2.32167e-16 -4.41917e-17)
(20 6.23579e-17 -2.23149e-17)
(20 -3.44725e-17 1.13744e-17)
(20 2.45439e-16 9.38868e-18)
(20 8.99048e-18 -1.10538e-16)
(20 8.32764e-17 8.38812e-17)
(20 -3.31353e-16 3.34146e-17)
(20 -2.41607e-16 2.4632e-17)
(20 -8.83775e-17 -6.55484e-17)
(20 2.69855e-16 -7.85028e-17)
(20 1.23566e-16 9.85734e-20)
(20 2.10977e-16 7.59408e-17)
(20 -9.72613e-17 -9.92307e-17)
(20 1.15985e-16 -1.4155e-16)
(20 -2.23668e-16 1.79896e-16)
(20 -2.14484e-16 -1.83249e-17)
(20 1.05113e-17 -2.90164e-17)
(20 2.84071e-16 1.44248e-17)
(20 -8.111e-17 9.6828e-17)
(20 1.63655e-17 6.95892e-17)
(20 2.86132e-18 -2.93753e-17)
(20 6.64022e-17 -5.43829e-17)
(20 -5.65615e-17 -3.19778e-17)
(20 -1.02712e-16 8.21505e-17)
(20 9.0042e-17 5.11493e-18)
(20 4.27121e-18 -1.92834e-18)
(20 -9.98483e-17 1.16631e-16)
(20 -5.75042e-17 -2.08609e-17)
(20 -6.57836e-17 -1.69199e-17)
(20 1.25799e-16 -6.46942e-18)
(20 2.49493e-16 -7.61955e-17)
(20 -3.93044e-17 -4.88151e-17)
(20 4.69053e-17 1.54229e-16)
(20 3.86964e-17 -9.39443e-17)
(20 -7.07409e-17 3.8825e-17)
(20 -8.23723e-17 1.38806e-17)
(20 -6.6345e-17 -4.22704e-17)
(20 -8.9019e-17 1.13413e-18)
(20 2.49e-17 -3.28778e-17)
(20 4.11944e-17 4.64086e-18)
(20 -6.5412e-17 9.00577e-17)
(20 8.90135e-17 -6.39321e-17)
(20 2.34077e-16 3.65755e-17)
(20 5.20313e-17 1.36107e-16)
(20 -1.86787e-16 -5.79114e-17)
(20 -1.16831e-17 -2.05977e-18)
(20 -8.13745e-17 8.47609e-17)
(20 1.33464e-16 -5.40286e-17)
(20 1.12492e-16 -8.29885e-17)
(20 7.26211e-17 5.21461e-17)
(20 5.10905e-17 -4.73411e-18)
(20 -3.58878e-16 -8.70935e-17)
(20 2.31117e-17 4.6435e-17)
(20 1.41986e-16 -1.16611e-16)
(20 -3.28032e-16 2.12313e-17)
(20 1.30785e-16 -1.13705e-16)
(20 -9.13839e-18 5.94022e-17)
(20 3.34986e-17 1.02232e-16)
(20 -1.88484e-16 -4.4081e-18)
(20 4.68226e-18 -7.18728e-17)
(20 -1.16121e-16 -4.30283e-17)
(20 5.81711e-17 -1.50053e-17)
(20 -1.64688e-16 -5.31128e-17)
(20 3.87504e-16 -2.51826e-17)
(20 -1.92944e-16 1.78965e-17)
(20 9.08325e-17 -5.03394e-17)
(20 -2.61255e-16 9.08125e-17)
(20 1.78391e-17 3.26485e-18)
(20 3.38076e-17 9.64223e-18)
(20 2.97585e-17 -1.22861e-16)
(20 2.07816e-16 1.09886e-16)
(20 1.79156e-16 -3.21116e-17)
(20 -2.91919e-16 -7.49775e-18)
(20 1.52152e-16 -7.09642e-17)
(20 1.47733e-16 4.91536e-17)
(20 -3.17581e-16 1.0413e-20)
(20 -9.84003e-18 -2.09375e-17)
(20 3.1727e-16 4.1922e-17)
(20 6.84406e-17 6.42566e-18)
(20 1.86578e-16 -8.37922e-18)
(20 -3.40103e-17 6.59831e-17)
(20 -2.26593e-16 -6.6076e-17)
(20 -1.30965e-16 5.76634e-17)
(20 1.57816e-16 -3.25208e-17)
(20 1.42547e-16 3.26993e-17)
(20 6.60527e-17 -4.21842e-17)
(20 -3.6448e-17 1.092e-16)
(20 4.83382e-17 -1.85588e-17)
(20 8.13642e-18 9.78344e-17)
(20 -4.4264e-17 -9.90255e-17)
(20 4.04859e-17 -1.12939e-16)
(20 6.98756e-17 4.84025e-17)
(20 -1.42435e-18 5.31982e-17)
(20 4.98717e-17 -3.16049e-17)
(20 -3.58641e-17 1.05004e-16)
(20 -1.11641e-16 -6.07777e-17)
(20 -1.43141e-16 -6.77214e-17)
(20 2.10404e-17 6.19068e-17)
(20 7.88041e-17 1.81474e-17)
(20 -2.40391e-17 -6.88658e-17)
(20 2.10595e-17 7.61035e-17)
(20 -3.37676e-17 -9.07379e-17)
(20 6.0598e-17 -4.95611e-17)
(20 8.06676e-17 9.2888e-17)
(20 -1.10826e-16 -5.93895e-18)
(20 -1.2877e-17 -9.35812e-19)
(20 2.19265e-17 1.43174e-16)
(20 7.00952e-18 -1.20366e-16)
(20 4.79568e-17 -3.30838e-18)
(20 1.11544e-16 -1.26615e-16)
(20 1.1819e-16 1.32735e-17)
(20 -4.06494e-16 -2.90063e-17)
(20 -5.87189e-17 -3.92201e-18)
(20 1.18182e-18 2.90872e-17)
(20 -8.58113e-17 -1.04e-17)
(20 1.28592e-16 -7.58157e-17)
(20 -3.34517e-17 5.36929e-17)
(20 -8.17943e-17 1.40371e-16)
(20 -1.72173e-16 1.55872e-17)
(20 -2.29581e-17 -1.63931e-16)
(20 4.84506e-17 -6.53267e-17)
(20 -4.99849e-17 -5.2221e-17)
(20 8.70974e-17 1.34747e-16)
(20 3.69557e-16 -1.56056e-16)
(20 -2.16268e-16 7.47213e-17)
(20 -3.1096e-16 -4.92625e-17)
(20 3.48173e-17 1.04887e-16)
(20 -4.78514e-17 -5.00365e-17)
(20 1.14792e-16 1.87044e-18)
(20 -7.72014e-17 -3.87272e-17)
(20 1.27909e-16 -5.49106e-17)
(20 8.59446e-17 -9.26371e-17)
(20 -1.79397e-16 9.04452e-17)
(20 2.39532e-16 5.41127e-17)
(20 1.34119e-16 -8.80242e-17)
(20 -3.21665e-16 1.18977e-16)
(20 -4.84569e-17 -1.14365e-16)
(20 2.22572e-16 -1.3734e-16)
(20 5.41777e-17 9.02876e-17)
(20 7.94845e-17 -4.52133e-17)
(20 7.67817e-17 -5.93093e-17)
(20 -2.02176e-16 5.78631e-17)
(20 -1.64781e-16 9.12188e-17)
(20 9.69408e-17 1.24457e-17)
(20 6.91558e-17 -7.15705e-17)
(20 1.38562e-16 -2.57278e-18)
(20 8.40163e-18 9.75584e-17)
(20 5.30452e-18 -7.35058e-17)
(20 5.37376e-17 1.37633e-17)
(20 -7.29933e-17 4.3661e-17)
(20 -1.35288e-16 -9.42256e-17)
(20 9.67077e-17 4.04942e-17)
(20 5.39853e-17 5.51444e-17)
(20 9.05359e-17 -9.98777e-17)
(20 1.15649e-16 1.32633e-16)
(20 -5.80407e-17 -6.26068e-17)
(20 -2.56035e-16 -5.17925e-17)
(20 3.65588e-17 8.94098e-17)
(20 -2.19484e-17 -6.09899e-17)
(20 -2.2222e-17 -6.51725e-17)
(20 6.01234e-17 1.38229e-16)
(20 -6.55721e-17 3.81023e-17)
(20 -4.54739e-17 -2.02972e-17)
(20 -5.57118e-17 1.00939e-16)
(20 -9.01827e-17 3.54652e-17)
(20 3.80886e-17 8.93077e-18)
(20 1.55384e-16 -8.33683e-18)
(20 -1.90302e-16 -4.81114e-17)
(20 -3.82907e-17 -2.84737e-17)
(20 3.66456e-17 -1.46466e-16)
(20 3.23526e-16 -3.92755e-17)
(20 -1.31003e-16 9.28765e-17)
(20 -1.98829e-16 5.04074e-18)
(20 -2.55874e-16 2.41634e-17)
(20 9.96886e-17 5.25034e-17)
(20 -7.60932e-17 -1.31168e-16)
(20 2.82022e-16 7.36199e-17)
(20 3.00203e-17 5.36105e-17)
(20 -1.02211e-16 2.56344e-17)
(20 8.72503e-17 2.70697e-17)
(20 -2.26089e-16 -1.05712e-16)
(20 -5.60698e-17 -5.31496e-17)
(20 2.51101e-16 4.43164e-17)
(20 2.36341e-16 -1.10673e-16)
(20 -1.93819e-16 4.86602e-17)
(20 -4.04027e-16 -4.28059e-18)