/*--------------------------------*- C++ -*----------------------------------*\
| =========                 |                                                 |
| \\      /  F ield         | OpenFOAM: The Open Source CFD Toolbox           |
|  \\    /   O peration     | Version:  2312                                  |
|   \\  /    A nd           | Website:  www.openfoam.com                      |
|    \\/     M anipulation  |                                                 |
\*---------------------------------------------------------------------------*/
FoamFile
{
    version     2.0;
    format      ascii;
    arch        "LSB;label=32;scalar=64";
    class       volScalarField;
    location    "1900";
    object      k;
}
// * * * * * * * * * * * * * * * * * * * * * * * * * * * * * * * * * * * * * //

dimensions      [0 2 -2 0 0 0 0];

internalField   nonuniform List<scalar> 
207032
(
0.0157619002586332
0.016796118897107
0.0219875157461398
0.0209310839777873
0.016476379045356
0.0163987553045697
0.0205332514783631
0.019879806501736
0.0195109843883248
0.015666792688536
0.016001968961151
0.0154895083845455
0.015316516358337
0.0153812014879097
0.0155490102455496
0.0161354115222006
0.0207216285516199
0.0205280931289185
0.0157371591537367
0.0158302228503043
0.0218653266380504
0.021808901054339
0.016293927063401
0.0156319940413343
0.0154429877249975
0.0155156643025476
0.0157280169875785
0.0165271571677255
0.022943500627876
0.0230974120199541
0.0159824061555784
0.0168293073718931
0.0242155113282066
0.0240203184801288
0.017359504701033
0.0173438817392712
0.0247593553648537
0.0233477882669661
0.016933805546101
0.0170334971303084
0.0230869186360817
0.0223087346775945
0.017093523288343
0.0169634284728595
0.0207073197198383
0.0194003554930806
0.0165805679087003
0.0160014030489065
0.0184433252967611
0.0170955699737365
0.0154593821240171
0.0151585882495453
0.0163352313690491
0.0157529013976948
0.0153139956447128
0.0150257862206961
0.0150622563253291
0.0150487553919362
0.0150141977656362
0.015010468641893
0.0150068864541338
0.0150209031106235
0.0150425428256478
0.0150806518938063
0.0150462762681028
0.015157386816725
0.0163774706114384
0.016407260637562
0.0151733396628572
0.015055811190198
0.0150424539164892
0.0156348907204043
0.0157167444603782
0.0153049614854728
0.0153151788565265
0.0150205610771156
0.015022094764401
0.0153518036702995
0.0171368302582682
0.0170256867815415
0.0152768186632656
0.0150893035154278
0.0151442431638441
0.0151583818751268
0.0150977993387832
0.015375230544412
0.0156016299731511
0.0156201980621845
0.0153897532174821
0.0152670667629803
0.0154094448917075
0.0151770144099944
0.0151112105582859
0.0150777651135888
0.0151146636468173
0.0151933457818411
0.0151285113876194
0.0151791935825473
0.0152431578368984
0.0152884814534237
0.0152324013047127
0.0152892654626798
0.0153559571562768
0.0154808371079093
0.0153628758145436
0.0156933603707911
0.0159886413376031
0.0163550760871742
0.0161065680415639
0.0174188404081665
0.0256700743171663
0.0253539766702304
0.0178643361097734
0.0180156195169248
0.0259588538388872
0.0252796313074568
0.0175776717648272
0.0178955255199644
0.0261741326615391
0.0269916969161894
0.0181227478882802
0.0182588283461306
0.0265714124726121
0.026805749390146
0.0184034564114091
0.0181345275616814
0.0273412769109172
0.0300875958804293
0.0195044517447547
0.0192229256375339
0.0290582423815042
0.0285365830800083
0.0185522813952003
0.0183663346162636
0.030387819971395
0.0293157064972674
0.0176895401693246
0.017266205001148
0.0263664144240201
0.024238797842062
0.0171395917557257
0.0167650556227254
0.0232767481537905
0.0217035244960848
0.016690712880914
0.0165092534204676
0.0203857880393653
0.0191282999896748
0.0161765326083923
0.0164380089653791
0.0202472570123252
0.018178415403911
0.0158000998095589
0.0154920534860476
0.0171666848208439
0.0164044986663778
0.0152255714121703
0.0150576701065574
0.0150234718640778
0.0153197462414813
0.0158162705383558
0.0158129969155796
0.01528501258374
0.0150104153911466
0.0150322237826116
0.0150185881575213
0.0150071936151469
0.015012021797464
0.0150339961689948
0.0150384852811682
0.0151231400216856
0.0150924557065963
0.015178903028837
0.0163975819634237
0.0164203126562219
0.0151142031864099
0.0150151777871377
0.0150033139763429
0.0152869459334043
0.0158169610812421
0.0159095672729688
0.0153427518116896
0.015000989416879
0.0150115679458807
0.0150062996269968
0.0150037273835445
0.0150018073596106
0.0150037422774965
0.0150080303533836
0.015003074894854
0.0150046861595966
0.0150159538930071
0.0150104666113924
0.0150040484062601
0.0150026492850815
0.0150036561448439
0.0150007382288099
0.0150004764037608
0.0150010959595224
0.0150024460182514
0.0150057265168612
0.0150025166874556
0.0150068432322612
0.015017985425745
0.0150590044649329
0.0150298040811516
0.0150142239471114
0.0150235844174516
0.0150649801758373
0.0150468117939567
0.0150709661015538
0.0150885614272793
0.01512065792571
0.0151056648307088
0.0151421902867257
0.0151758232940809
0.0152163892413161
0.0151816427101663
0.0152268765597934
0.0152625485055722
0.0152782495944356
0.015241944386911
0.0152986637482636
0.015351100007182
0.0153704415091161
0.0153171314630028
0.0154557512353847
0.0155963895621708
0.0156362586414759
0.015517066336779
0.0161646616114582
0.0163876811771015
0.0163733925993726
0.0161634940535772
0.0179795533917458
0.0181430174959768
0.0182729069534453
0.0183030153059574
0.0181267714500725
0.0181070864987422
0.0192372500012493
0.0306318623265155
0.0315723407751851
0.0194716365136998
0.0196238386353068
0.03505257420917
0.0332713928768618
0.019431933582203
0.0186556736946193
0.0320881082681863
0.0304296555607117
0.0185421656976991
0.0166985886136546
0.0160870485650071
0.0159318738329508
0.0158925989203474
0.0158396695698582
0.0159639346878245
0.0159730301932656
0.0162830078349945
0.025661531046525
0.0242207967527865
0.0161990879306102
0.0161532571547206
0.0229097015952155
0.0216679346634021
0.0161313888702724
0.016085748267883
0.0203386841228023
0.0203442758883962
0.0160671727508694
0.0161552620753591
0.0196495720814891
0.01819371361669
0.0156976074839868
0.0153847327748698
0.0171657346732935
0.0171908840323654
0.0152429382465178
0.0153714602673544
0.0174192901947351
0.0165754960649636
0.0151585879312179
0.015133871090934
0.0166614181418318
0.0159604063227751
0.0153731550133391
0.0150032602288549
0.0150099546229328
0.0150066020990112
0.0150029633290024
0.0150016718983037
0.0150036785422946
0.0150037676585118
0.0150016605826864
0.0150016158943275
0.0150041425698521
0.0150047240790186
0.0150015631527423
0.0150008248778003
0.0150043779839505
0.0150023135779532
0.0150016705543153
0.0149996674563911
0.0149997699628887
0.0149995454107111
0.0149989938240861
0.0150016591475432
0.0150044051026748
0.0150185707300888
0.0150103631284869
0.0150073534724073
0.0150097390243615
0.0150311032617359
0.0150222845390254
0.015056873388511
0.0150749672469474
0.0150947258812702
0.0150808604245937
0.015113433051784
0.0151235276717756
0.0151130794054915
0.0151020429010066
0.0151351614587782
0.0151452457158849
0.0151560433703773
0.015140747638039
0.0151752661042568
0.0151892899917086
0.0152077981711033
0.015192903943413
0.0152438846825631
0.0152787824195442
0.0153001241318011
0.0152657156852382
0.0152858349966252
0.015320048693136
0.0153398554385096
0.0153059969450426
0.0153688219909343
0.0154297142441257
0.0154496020985488
0.0153907323165254
0.0154803266864795
0.0156068373420318
0.0156204601158598
0.015504652723327
0.0155565027801299
0.0156609725623017
0.0164277680153258
0.016230514597588
0.0162194351301924
0.0164119918743271
0.0165626437100291
0.0163923711830544
0.0182361522315777
0.0181926344344134
0.0186363675539363
0.0187413300386884
0.0208599449993359
0.0200689035742517
0.0356813989240004
0.0379117074851538
0.0429886308898346
0.0392403374249084
0.0201304155280441
0.0214762272350486
0.0189338861333457
0.0193196825573465
0.0193261328185259
0.0189617860103319
0.0214008490196454
0.0202309836562096
0.0419561116674129
0.0458007287968332
0.0440575393118286
0.0208655804642635
0.0201146187206736
0.0417055723293268
0.0432985698074456
0.0201308007014108
0.0202114817043784
0.0436447037376488
0.0390566389198023
0.0202225483703602
0.0202300896302713
0.0398092721388605
0.036400175211016
0.0202199302774432
0.0193897015915332
0.036005472198591
0.0339089437821119
0.0190335748360133
0.0197338744189853
0.0340824141911047
0.0339243713467213
0.0195491828566204
0.0179943877481505
0.0298299260875673
0.0272773010110595
0.0172358321147463
0.0168620416756963
0.0250486340519808
0.0244711537207897
0.0166557095836265
0.0166295237135332
0.0228750614615306
0.0214100000042333
0.0165941662352491
0.016576768490176
0.0214819320886191
0.0223921313047676
0.0164451974274267
0.0163366030227879
0.0205617395427395
0.0220309038074534
0.016344976715097
0.0161344777409679
0.0215266535202841
0.0228201116370715
0.0161542580928807
0.0161793534540893
0.0243328420811285
0.0260459785128502
0.0162370069781437
0.0163102444549801
0.0280187926801517
0.0270682763768141
0.016680897507686
0.0178633318316632
0.0286573217578633
0.0252424947850607
0.0162155697771073
0.0161012259751318
0.0226497104215194
0.0202099266186753
0.0160350542877815
0.0156185236543084
0.0185569644263034
0.0186634326452817
0.015450732888149
0.0153333160675261
0.0175281678667606
0.0173192930183066
0.0151288224985222
0.0150602056186951
0.0165549523149433
0.015901313917721
0.0153407317149162
0.0150016307583682
0.015007125864264
0.0150113480016011
0.0150025720622712
0.0153398149654446
0.0158978744037169
0.0165496882249198
0.0150680909502819
0.0151451636653476
0.0166561640650627
0.0159570534001587
0.0153704870424834
0.0150047506046305
0.0150090270501029
0.0150087977527874
0.0150033737630944
0.0150028016071105
0.0150062402390834
0.0150048457095888
0.0150018104577554
0.0150015725033278
0.0150051342200725
0.0150066338025757
0.015001699095058
0.0150014146859127
0.0150115553533639
0.0150434251854527
0.0150089169439657
0.0150050090603208
0.0150021642207118
0.0150179709060152
0.0150368797874829
0.0150769412411632
0.0150453962964926
0.0151035716072925
0.0151684031888809
0.0150694995946956
0.0150395108497462
0.0150895602606254
0.0151295407754017
0.0151549943172659
0.0151197596496044
0.015159863672753
0.0151945885376508
0.0151317483696054
0.0151184962298096
0.0151538129594433
0.0151664860389933
0.0151557374232142
0.0151467073083168
0.0151776912851867
0.0151867736016123
0.0151779084221311
0.0151690473738934
0.0151849831375284
0.0151947178478768
0.0152055550082718
0.01519122230815
0.0152099570757049
0.0152239133250981
0.0152266301653483
0.015212239854456
0.0152312393731507
0.0152456105085511
0.0152651532746464
0.0152507077462221
0.0152700512985579
0.0152849902488053
0.0153585020581192
0.0153253794385851
0.0153423671532742
0.0153745266621321
0.0154656347774221
0.0154103789762139
0.0154292708620723
0.0154816260403068
0.0156336174429819
0.0155274162285732
0.0156117053833143
0.0156889104106935
0.0164846622575146
0.0163108187389484
0.0165167865892177
0.0166315928046657
0.017226085152093
0.0170547103766898
0.0171275332181727
0.0172839932949206
0.0189541568854449
0.0186443298397025
0.0186033622737187
0.0187514223011243
0.0200809553713327
0.0439909297246358
0.0468738864963823
0.0207003567893426
0.0207157979078382
0.0510656520507261
0.0476725398140311
0.020113381603203
0.0200412959007721
0.0490373281320622
0.0454008554709245
0.0200500859785
0.0202220492784379
0.042201714038334
0.043752922633461
0.0202731944655419
0.0198572676723993
0.0394790987845769
0.0364863631328539
0.0197754568647499
0.0197413749132954
0.0356883092387217
0.0337513070904222
0.0195223126598539
0.01924481386494
0.0310777485486486
0.0283917113705238
0.017592986359809
0.016784328850617
0.0263120784799981
0.0265490270100165
0.0167166306522337
0.0166515251848941
0.0247119527074951
0.023070558350757
0.0166093893260003
0.0164740041092739
0.0242598769736435
0.0235884452711468
0.0163626041263693
0.0163976570334082
0.0254278947564195
0.0276014774842818
0.0164573041698334
0.0165365386392627
0.0301316054220751
0.0330489578631058
0.016685089354378
0.0168585174821659
0.0305189376441743
0.0290361497950251
0.0175854288189063
0.0182623191971271
0.0300071626115488
0.0318622888444877
0.0183487295497915
0.0182202348042324
0.0305847314115893
0.029678507296981
0.0172602416373077
0.0167334316998973
0.0260609066199906
0.0237846247387107
0.0159073544343877
0.0157695590472749
0.0217791598822404
0.0200771101852829
0.0155971161852466
0.015385650693977
0.0193184138106086
0.0182306965407296
0.0152166166598807
0.0152755653595018
0.0182184484474075
0.0173128924182438
0.0151358335597657
0.015354855386812
0.0175183803981018
0.0174084623412015
0.0154458826903951
0.0152671782781561
0.0171650519337256
0.0171483495655714
0.0153698270442918
0.0151671218698372
0.0163892705869637
0.0158087681269035
0.0152825181062947
0.0150062346800211
0.0150261508636753
0.0150135661821361
0.0150039512985607
0.0150085855797671
0.0150306842953256
0.0150513320477706
0.0158154719131357
0.0153167900407262
0.0150170754345994
0.0150270910988148
0.0153126238800309
0.0157543231068714
0.0150625455987579
0.0152643811679485
0.0163401259323984
0.016422337131311
0.0152513136708158
0.0151625955982377
0.0163711089188301
0.0170316963787691
0.0172044795048384
0.0155180277273735
0.0153560956039565
0.0156534583983547
0.0157846103136336
0.0184722926120334
0.0180769743800463
0.0186945517234661
0.0191391932624207
0.0158669367589912
0.015649967636119
0.0153997767996869
0.015610173138228
0.0155899525946612
0.0153856560765674
0.0151147954045134
0.0151847313342045
0.01520910666315
0.0151315768362665
0.0152781302894762
0.0154129976993793
0.015486897544547
0.015328220712455
0.0154033448208942
0.0155646957370942
0.0152709491550498
0.0152112889309389
0.0152838098986889
0.0153385414984404
0.0152384067038477
0.0152034777999954
0.0152512455653157
0.0152816600492365
0.0151981727589953
0.0151854570279733
0.0152340846265102
0.015243888583195
0.0152210402551281
0.0152130364774719
0.0151823972331559
0.0151926431315149
0.0152138105561939
0.0152056466216812
0.0152036840965393
0.0152131040540153
0.015232251997743
0.0152228774534231
0.0152290795410951
0.0152429512612212
0.0152625807415818
0.0152486815664737
0.0152681523084872
0.0152825406953702
0.0153024252810837
0.0152860880467005
0.0152877568781274
0.0153046035490408
0.0153251593494523
0.0153060224039193
0.0153592953927399
0.0153909488215619
0.0153973361757307
0.0153693543593279
0.0153830359032702
0.0154088899960929
0.015490609165982
0.0154478140173269
0.0154568857880052
0.0155006606175815
0.0156360091127507
0.01554880042568
0.0155631168406867
0.0156533781935232
0.0157042973732086
0.0156340388471325
0.015652349248185
0.015709224019375
0.0157122179227472
0.0157265410967088
0.0156213933825667
0.015692826572374
0.0156911180737547
0.0156176079529479
0.0155404389716727
0.0156376963021593
0.0156291769357898
0.0155342715923753
0.0154405582434844
0.0154876566112158
0.0154827908085034
0.0154364856921307
0.0154902923936035
0.0155237504884239
0.0155320486282194
0.0155343574057164
0.0155340305743269
0.0155079627598061
0.0155063839981012
0.0155022622934707
0.0155001748077901
0.015514686645896
0.0155137378199763
0.0155372821655795
0.0154441636956494
0.0154339823341423
0.0154309590678702
0.0154347438144267
0.0154452330499106
0.0154395439427291
0.0163868563728855
0.0238993772594788
0.0221395588805046
0.0156830662130492
0.0154975988857364
0.020634476860465
0.020747086368999
0.015643059836553
0.0155442365864431
0.0193269779773404
0.0200144241289848
0.0159657652231333
0.015552760854529
0.0186347769807388
0.0185944770051139
0.0157184788096579
0.0155002245683623
0.0181357307019763
0.018157866422598
0.0156529621264091
0.0157792044436383
0.0182242731868871
0.0186383958567581
0.0159816959544761
0.0166027875418952
0.019643877723016
0.0203498171352178
0.0166705266754704
0.0164667640538971
0.0207286852183109
0.0211441199228169
0.0166177927697883
0.0162576870976417
0.0158609661156202
0.0205255095539473
0.0209129544491337
0.0200664773824599
0.015974634940049
0.0156912960479682
0.0195988144737108
0.0220661109890786
0.0217252610504754
0.0162692087379011
0.0166415879930078
0.0157283244759812
0.0155229464706613
0.0157860048380019
0.0160249714701833
0.0154428133425729
0.0153848560547073
0.0154138728707482
0.0154701772632458
0.0153065047764148
0.0152754629098943
0.0152672962832133
0.0152986615079828
0.0153063561666847
0.0152781610937869
0.015299914592513
0.0153280723873841
0.0152648718441492
0.0152517299514496
0.0152523244252004
0.0152631268496774
0.0152398098877554
0.0152306375490932
0.0152299235714877
0.0152393569956758
0.0152328720545942
0.0152247953070471
0.0152450577706492
0.0152531531653927
0.0152521828135318
0.0152427844761167
0.0152627396172647
0.0152728695876997
0.0152940998122143
0.015281299021978
0.0153007490663712
0.0153166471912316
0.0153233890164751
0.0153047081867771
0.0153146372331846
0.01533063070822
0.0153422897444253
0.0153279954406866
0.0153290258551983
0.0153436422499884
0.0153434761336691
0.0153286964666283
0.0153767506681167
0.0154019189075901
0.0154111463215625
0.0153879162363407
0.0153972368526047
0.0154215851505461
0.0154997277239571
0.015460173285099
0.0154736076185844
0.015514792970853
0.0156448767829328
0.0155644817686423
0.0155849083978405
0.0156708206157528
0.0157215873079048
0.015652291036407
0.0157107716142277
0.0157525036952009
0.0161205760195554
0.0161111093691571
0.0161413843196506
0.0161444496814804
0.0166768495979767
0.0165740837587758
0.0166318454441791
0.0167224012505504
0.0173284178909423
0.0171855665238534
0.0172577835847163
0.017390117204169
0.0187317436999618
0.0186198682622052
0.0186678414711395
0.0187740554847586
0.0201894938868249
0.0520285540516789
0.0561678114873407
0.0207780051202024
0.0208688297545102
0.062436699428692
0.0573019574946184
0.0202907302579732
0.0201480866340262
0.0595207795466636
0.0537627106841916
0.0200805331026328
0.0203888372876709
0.0517303149843534
0.0538554930465061
0.0203905743834611
0.02032835317358
0.0485312826817168
0.0429972159270461
0.02073370261449
0.02120109385342
0.0399311882659603
0.0374525205885875
0.0199602179297792
0.0178683339151399
0.0171136391622559
0.0166420887310952
0.0164916201051981
0.0188217842565224
0.0311230972891484
0.0286196417995841
0.0172798132188696
0.0166905471135668
0.0315019054076451
0.0287380400862294
0.0165584497527508
0.0165104042351847
0.026323075183497
0.0163300742918818
0.0159514316037493
0.0159799448779681
0.0155575212291479
0.0156345756271344
0.016164002335798
0.0165873945733827
0.0179861858382316
0.0315192925421655
0.0340319876515633
0.018634980878553
0.0191126321956339
0.0340923770903038
0.0278723760078569
0.0173855687237565
0.0168156946598289
0.0268322919619554
0.0273968639744883
0.0174641508145218
0.016574707181859
0.0240839265186828
0.0223575226658112
0.015859635603859
0.0163795374354578
0.0248059603439649
0.0222817513463967
0.0161508004935682
0.0165961653524358
0.0216641805533044
0.0228863747906205
0.0166509572121325
0.0166009593651424
0.0214025348994148
0.0204759656507956
0.0160077858660828
0.0159842108374474
0.0202540868537984
0.0195976821437293
0.0160682885875821
0.016396985730196
0.0203908221988474
0.0193598644963699
0.0161813311444489
0.0165902850276968
0.020689425560086
0.0210649195290762
0.0171367125458898
0.0171629601386586
0.0217431334163299
0.0223148393538918
0.0170960625221896
0.0173736590146879
0.0237424330728577
0.0233047227885795
0.0228577599392213
0.0165350789877234
0.0169346253474224
0.0174034663081325
0.0170961537196938
0.0243438284720272
0.0246529228756975
0.0250837159890941
0.0177030990325652
0.0179446275330153
0.0268329982383745
0.026392579556873
0.0264459302413581
0.0178755670795941
0.0180500306162553
0.0174781826005249
0.0171391721991613
0.0169782761366544
0.0173773659774399
0.0160695831326222
0.0158480459686762
0.0158470185640431
0.0160664369235941
0.01549973478594
0.0154326152516009
0.0154684183212511
0.0155345383921058
0.0155014297283085
0.0154476381047311
0.0152980300752157
0.0153283523621448
0.0153513045636801
0.0153212568371987
0.0153447965673276
0.0153749945543555
0.0153501251723436
0.0153224512778064
0.0152733612517114
0.0152863051475987
0.0152842586746572
0.015273677587282
0.0152514085523773
0.0152604908274638
0.0152598424197619
0.0152505049992806
0.0152711201251961
0.0152813252607424
0.0152744061467085
0.0152654920471955
0.0152846259120011
0.0152965207998164
0.0153201598766899
0.0153048005653307
0.0153155563663515
0.0153283843749275
0.0153411275884421
0.0153300233216438
0.0153258143332111
0.0153372563005238
0.0153366140645954
0.0153249319695312
0.0153281699688933
0.0153421151846748
0.0153551278562779
0.015342118773927
0.0153419523899241
0.0153554227696665
0.0153563898867839
0.0153426538998095
0.0153422897017037
0.0153562048016582
0.0153690839914613
0.0153551233356518
0.0153980256396749
0.0154206192889879
0.0154341423210723
0.0154099214845058
0.015470653465304
0.0155091502430246
0.0155287466923019
0.0154878637488162
0.0155766831106457
0.0156545546491676
0.0156880995252582
0.0156024395233015
0.0156692063137094
0.0157398312793288
0.0157732533485016
0.0157316014350464
0.0157522223347825
0.0157941778975231
0.0163158583493811
0.0163076905975251
0.0163151623584923
0.0163157636159158
0.0164133531633806
0.0164188316493699
0.0164162844933516
0.0164009656553756
0.0167710886389944
0.0166930710176484
0.016757665809505
0.016823886872909
0.0174725660657146
0.017342057427792
0.017434743545807
0.0175649401194308
0.0188372302478586
0.0187350409368145
0.0188163028668203
0.0189124195024016
0.0204076792843828
0.063531403025119
0.069866859253309
0.020976319839757
0.0211014155473579
0.0205412578657762
0.0709709852201994
0.0789022745654482
0.089825302820767
0.0212426950116093
0.0206910062790995
0.0797852783467888
0.0836092956052359
0.0204467690310227
0.0203278417348322
0.0742795672396856
0.0663179165028829
0.0202293254273425
0.0209812823510271
0.0658383612831188
0.0659390588860088
0.0205539245503498
0.020459703463594
0.0594910096036084
0.0547288474508746
0.0231427687386975
0.0227153820986487
0.0482955462379484
0.0433128312870946
0.0231256965800299
0.0220356369448788
0.0387141376433333
0.035503825278317
0.0213208752919866
0.0204247186517013
0.0350333189964708
0.0387862685795304
0.0188701983959022
0.0179142090712578
0.0346599572218321
0.0166128370987151
0.0162140607733659
0.016341934015435
0.0158347456794931
0.0158060507962856
0.015893258781243
0.015514173395375
0.0158209309869737
0.0162832759139054
0.0175977514251112
0.0280172214579302
0.028737083013159
0.0179941244597028
0.0180869426389245
0.0289987785000488
0.0329989546184618
0.019217202567827
0.0182715303960272
0.0305491753039254
0.0291724070630334
0.0181093055328261
0.0177367858534111
0.0278243406613766
0.026857884986949
0.0171324414417857
0.0169710094365915
0.0315322406020763
0.0288531783139496
0.0168415662837873
0.0167426108039533
0.0265993447729057
0.024565627664256
0.0166665365793565
0.0166194090405101
0.0242847023676773
0.0231325614523441
0.0161120495270893
0.0163598416584906
0.0235179318021639
0.0220541692663213
0.0162953018449055
0.0162568413005974
0.0205176215207537
0.0224504872915885
0.0163684823061017
0.0165717256482861
0.0216678887754755
0.0216939582676089
0.0166396197427722
0.016986131565759
0.0223447079168989
0.0232925835357959
0.0178221620288693
0.0179056506547061
0.0236717405520115
0.0245700027733908
0.0177363418248699
0.0180979931696556
0.024741034237263
0.0268702809620573
0.0181945641992492
0.0182193901380772
0.0286174152413736
0.0281495223878266
0.0179577426372707
0.0180486860951333
0.0178282538042612
0.027778911171839
0.0274479549211816
0.0286728950639833
0.0294659020850597
0.0178513885572705
0.0180826688987544
0.0172905927210199
0.0170009110144997
0.0160036563914077
0.0162279005446498
0.0161794686497422
0.0159781215588518
0.0155040594957894
0.0155702839787039
0.0155295545262497
0.0154772365872659
0.0155044579813718
0.01555563790317
0.0155784573648224
0.0155288718606501
0.0153680694565397
0.0153985436530136
0.0153714275563126
0.0153439655381204
0.0152951007470618
0.0153087638296854
0.0153063911004472
0.0152950702223367
0.0152722977692419
0.015282220924927
0.015305043533661
0.0152920574376201
0.0152905096624237
0.0153036808003463
0.0153278149821006
0.0153111123219478
0.0153223007846636
0.0153363728015213
0.0153498890563911
0.0153376527755645
0.0153310548443665
0.0153419637555152
0.0153571732777658
0.0153468455305421
0.0153452309867196
0.0153558287100747
0.0153513762967608
0.0153406435718989
0.0153394104290215
0.0153504557930313
0.0153646031682032
0.0153534036103235
0.015355463064799
0.0153684300370979
0.0153687309124637
0.0153552052604964
0.0153555719978599
0.0153693559088228
0.0153824260170344
0.0153682242244187
0.0153676640943391
0.015382032142916
0.0154302566173101
0.0154078485931868
0.0154219320218634
0.015446478512779
0.0155187070846291
0.0154805498653004
0.0155010712241285
0.0155423713109377
0.0156646280808793
0.015587769978629
0.0156184702177108
0.0157049899768758
0.0157582085849883
0.0156857772797572
0.0157023783346501
0.0157765471847668
0.0158143930957746
0.0157716048633328
0.0157910183157595
0.0158347997793848
0.0158546436180697
0.0158097648008515
0.0158288833587092
0.0158749084865166
0.0164795360550864
0.0165018410768364
0.0164967203718626
0.0164646416229509
0.0165384744304276
0.0165761228773654
0.0165689055732415
0.0165226414264345
0.0168798800693312
0.0168230738341445
0.0168843981118493
0.0169374614696465
0.0176631272278786
0.017534014531462
0.0176373853548263
0.0177669848320005
0.0189986404884805
0.0189099558485697
0.0190139601095048
0.0190959789772811
0.0192031172412495
0.0191259650819224
0.0214010001769546
0.103177162880014
0.0903002978965269
0.0208566256139205
0.0205819291311138
0.0945701042634068
0.0999191435507239
0.0212628581133434
0.02095511401277
0.0959914534718347
0.0836677575808876
0.020776831125483
0.0206593796970281
0.0738243992339895
0.0706181246995079
0.022804510293673
0.0229603568939165
0.062237832249452
0.0632810762943047
0.0243370019897518
0.0245018872590686
0.0542008584994453
0.0490537529142202
0.0245635655609707
0.0245932196015283
0.0461353210002605
0.0552482858762746
0.0245163317302153
0.0234294341317577
0.0225900810204489
0.0232080243501182
0.0429506027529391
0.0416213737445979
0.0231460063987027
0.0231052075361225
0.0416034025746352
0.0384870282433422
0.0223456353943236
0.0221424072603231
0.0374672869944221
0.0410533169152795
0.0222171663500074
0.0206197658619585
0.040631213961096
0.0440463918410557
0.0190511068431756
0.0171456182560066
0.0397791100613628
0.0362377469431093
0.0168940733921425
0.0169993755080022
0.0335398002441608
0.0336789271966891
0.0180168628609813
0.0180357929204488
0.037259663250298
0.0345698577271062
0.0184037800767049
0.0185540624166506
0.0378972530955817
0.0416538793775483
0.0186958871372357
0.0187518757195014
0.0375438106256128
0.0419188270525457
0.0214796233812373
0.0208024782077353
0.0373734651218445
0.0364860300113329
0.0198533633473258
0.0186904857078436
0.0329172001457106
0.0308738011183929
0.0182623608425883
0.017973951343242
0.0296577452345262
0.030436637532653
0.018242240962931
0.0182492984265737
0.0310685104304856
0.0362091312609358
0.0193906035776009
0.0214429794357014
0.0417355337517587
0.0360063100724498
0.0205180210208037
0.0192009463899874
0.0326711357603486
0.0298113340854115
0.0187609622123245
0.018276039789203
0.0316247719603904
0.037763215091967
0.0173233925373235
0.0171509578994063
0.0343568958962149
0.0339519777346314
0.0171282028073697
0.0167566378077316
0.030262141796224
0.0316036925852634
0.0170745449751115
0.0168294013225871
0.0292691662971072
0.027121715391038
0.0166235049572072
0.016467299740457
0.0251906297220833
0.0261412893807474
0.0165626786202896
0.0167831224320867
0.0247364146458422
0.02472506564557
0.0168551629617418
0.0172442452253549
0.0260268003356583
0.0294237723644769
0.0179690782911048
0.018124762759226
0.0294987239896981
0.0308354787862379
0.0182889240695722
0.0179766494278187
0.0297119425645918
0.0313121622153569
0.0180401259469123
0.0181614891036896
0.0179232059314548
0.0312420729167929
0.0300257607094239
0.0315062432652292
0.0332492108572157
0.0180499474272045
0.0182913118306553
0.017471239118641
0.0171730937972994
0.0161607950651665
0.0163915211801407
0.0162675997815973
0.0160766160561214
0.015573975735827
0.0156393838376977
0.0156685605108131
0.015604783409338
0.0155493925496764
0.0155966703752831
0.0154209312774767
0.0153894159966889
0.0153636660812253
0.0153917276199196
0.0153321664320002
0.0153156952752205
0.0153153126622623
0.0153296143349826
0.0153553073038225
0.0153372103624805
0.0153133235334369
0.0153300709657636
0.0153390690492199
0.015325114912608
0.0153414597233841
0.0153533273692742
0.0153500082582181
0.0153381144581413
0.0153549306846422
0.0153661868357126
0.015365974556071
0.0153541183709915
0.0153708317562416
0.0153831700727397
0.0153731818128511
0.0153626065797118
0.0153602174127354
0.0153710834692822
0.0153659313416255
0.0153550899625705
0.015369554701873
0.01538088588611
0.0153789987603597
0.0153672695906985
0.0153686046747909
0.0153819385337201
0.0153821361664497
0.0153681609489742
0.0153814448793974
0.0153958092879576
0.0153957367160949
0.0153811402725158
0.0153804434898917
0.0153951922751498
0.0154402416850711
0.0154179935776844
0.0154339992648846
0.0154588342554959
0.0155286286269717
0.0154907396875972
0.0155143105164467
0.0155560039163719
0.0156752312067105
0.0155992223587615
0.0156345436459516
0.015721753756275
0.0157383177664616
0.0156505771849485
0.0157189499071434
0.0157948409965373
0.015813097857303
0.0157355133186196
0.0157521191356513
0.015831341569321
0.0158495658327619
0.0157687831676115
0.0158475963524331
0.0158947724411217
0.0159151736047147
0.0158668580065192
0.0158857927254117
0.0159352064852048
0.0159557890037969
0.0159053132279009
0.0166447661015873
0.0165934269036506
0.0165756166751906
0.0166349879418981
0.0167070687062474
0.0166436694509975
0.0166232358977098
0.0166945571665515
0.0169418404359857
0.0169952561253825
0.0170521277680774
0.016995550631946
0.0177420442245521
0.017874569226776
0.0179831351244447
0.0178446892575533
0.0179401520737469
0.0180886598281109
0.0193172911500831
0.0192432536187684