/*--------------------------------*- C++ -*----------------------------------*\
| =========                 |                                                 |
| \\      /  F ield         | OpenFOAM: The Open Source CFD Toolbox           |
|  \\    /   O peration     | Version:  2312                                  |
|   \\  /    A nd           | Website:  www.openfoam.com                      |
|    \\/     M anipulation  |                                                 |
\*---------------------------------------------------------------------------*/
FoamFile
{
    version     2.0;
    format      ascii;
    arch        "LSB;label=32;scalar=64";
    class       volScalarField;
    location    "1900";
    object      omega;
}
// * * * * * * * * * * * * * * * * * * * * * * * * * * * * * * * * * * * * * //

dimensions      [0 0 -1 0 0 0 0];

internalField   nonuniform List<scalar> 
207032
(
3.3660290400762
8.27061810501082
28.5220099493172
25.8065435902247
7.03437463360319
6.83461966017667
25.4349579526017
24.1323390067892
26.6476738514327
4.51400725356823
5.11765016209486
2.5817151959581
2.17019170709102
2.2902266895582
2.69040096682628
5.547014885378
25.455342861746
28.3486887661834
4.68689711456678
4.87108810128957
30.1645983036776
27.1632018099921
6.09211511485888
2.90683812782739
2.41261495681776
2.59141802524043
3.15770377986561
6.82471155919368
29.1526122271816
31.9070254323063
5.38599523421497
8.56097764847056
37.0413676688175
34.5728106398049
9.77699695590931
10.0643679010945
35.8781869739774
31.673338450919
8.76544661665578
9.62936753786659
35.463738457805
34.2073912306155
10.0515657269569
9.6485854411151
30.463964234039
25.1981826163097
8.08172613154026
5.33444305316028
19.2693512618454
15.3436579881651
2.89278304748384
1.51860178714069
13.7386408068472
14.0712768909238
14.3850306861727
1.07608714253765
1.09084272619836
1.0227960295027
1.00357576378329
1.00224642034741
1.00113813211631
1.00461777924394
1.0164390723248
1.03082742004096
1.01220393026148
1.73826070590188
17.5347411763066
15.3108501373646
1.67928407340022
1.06975295839391
1.04183388749955
16.6687280318019
14.8780122547963
15.0809171324528
16.5571683398164
1.03051704124041
1.03791007948319
2.44196821119112
16.6743533758839
19.3501261531726
2.38537669533906
1.16065561921081
1.20588736766953
1.21192112427331
1.16345841762299
2.93309596129417
3.54364798917369
3.54385955005193
2.94130196515971
2.09336289107236
2.3475433378305
1.21882866146137
1.16797159834966
1.06018244606889
1.08353900789449
1.31753107231007
1.1873068660091
1.27981382659884
1.40000240339087
1.44408472161161
1.37054493764165
1.48153376372812
1.58033000790175
1.91372461526416
1.63369411310454
3.175402231122
4.02868454434979
5.44032037502688
4.81566498878639
11.0837491125612
47.6655389164645
45.6290413617442
12.0509871213086
12.6604546791058
45.3008308216776
40.9946255801195
10.9380509745617
12.0878904488139
43.66898756891
50.3856102425012
13.0342633176171
13.6827265334132
50.6533794415007
56.7564859506066
14.6417893635889
14.6877023871737
62.2502092580008
82.6838768429926
22.4021519487337
18.869633069147
70.3247800706661
58.3655358022865
14.8730047191056
13.8042849619287
52.6307957328735
43.3354972557618
11.5380451274575
10.4219718792308
39.1427926296866
36.6859057099537
10.1164274499319
8.09211846559737
30.733921206333
28.8062763928737
7.87206239584884
7.32126575586889
26.674305628679
22.8752410996533
5.95889798230895
7.55188143199982
24.9937287738682
18.2468038442673
4.85811035326982
3.35675203971895
14.9408936311033
13.0727951861485
1.96761693098153
1.03819558766875
1.01054944633002
13.8826513754611
13.1540361585302
11.9403489398095
12.0348993815136
1.00269373811361
1.00926984517741
1.00318914481942
1.00106497979949
1.00255035852017
1.0090759329329
1.01100364568282
1.32777937041516
1.4077531086515
2.08352036789346
12.6802550767666
12.5438236188804
1.75959757599799
1.00575798709691
1.00167194859989
11.8498111789255
11.8081077829093
13.2079066749244
13.9064488692882
1.00444128431006
1.01019397590329
1.00066087154619
1.00040865025348
1.00011534406207
1.00023837808018
1.00081547360517
1.00027114944931
1.00054121637867
1.00303263709802
1.00117776239453
1.00027392184726
1.00023524122129
1.00037416851409
1.00000220579753
0.999984881861886
0.999951327548365
1.00007111840997
1.0003110985836
0.999979032034952
1.00053525643544
1.00276647978873
1.0411337667582
1.01984972928618
1.00251675827813
1.00524619488561
1.02128260347957
1.01454383299493
1.02595435311126
1.03549919803813
1.05549131306934
1.04607055327106
1.1093571121038
1.14442818502623
1.18461081252648
1.14814859327076
1.21222823501187
1.25342962409556
1.26529816445423
1.22258760349968
1.37265899833712
1.45940104729812
1.47993231978949
1.39056169439752
1.8579349795263
2.23109741624306
2.31690642678073
2.03572373110131
4.89617266122414
5.45524356542765
5.41783607555571
4.88563494615906
13.7996794648607
13.4322710102471
14.0468191258139
15.5642792007623
14.5329454721715
13.1711097625751
18.8552454195083
79.4373877420719
96.1667049127226
22.1068289435859
22.7089488435441
99.0595778248754
83.4193626027798
19.6355625600973
15.1443042456783
68.1672981868147
65.3038908461879
14.7196073715954
6.54657343198712
4.01963720508994
3.27992960814655
3.75060628214209
3.58350722776194
5.08946294076686
5.05201404021157
6.73754586728195
32.6431634071844
32.1800421083004
6.703054591223
6.66367492679676
32.3678700680146
33.0280784895155
6.8229278078227
6.7793344934351
32.3429598179445
31.9360774177736
6.69475269147613
7.25061552113752
26.4657075735558
19.2185742912381
4.84098470036084
3.30583085064018
15.2447390115775
14.8132096667295
2.54368696866345
3.5296113911943
15.7617802069641
13.4309525259578
2.17776033021287
2.02056342768461
13.7560678931916
13.9444160891597
14.9598405086029
1.00388379570276
1.01157165203571
1.00083405315348
1.00025792486969
1.00009233880362
1.00021644104708
1.00017976857163
1.00009238438955
1.00009071352877
1.00022652184674
1.00034636219201
1.00008052131528
1.00000748117422
1.00030910090332
1.00009538646028
1.0000317365327
0.999942100687484
0.999941555910144
0.999937275119099
0.999918651817868
1.00008719563141
1.00040160542532
1.00360485731855
1.0013411904514
1.00060470366049
1.00095363689825
1.00865225091208
1.00494689477352
1.01971806748036
1.02873912051287
1.03845427564051
1.02900161504446
1.04791720739196
1.0546623873318
1.04677506024961
1.04092351348332
1.0653687088307
1.0718451912971
1.08224847654616
1.07154764059696
1.10408583443778
1.11619539812365
1.13758298651169
1.12284380957271
1.2287525675505
1.27040532280307
1.2988667958365
1.25697063172013
1.28377926305965
1.32644821779748
1.35775852019939
1.31478542029194
1.52324277129481
1.63825464525704
1.66379068820498
1.55281277689296
1.88879552170385
2.20658469822351
2.2013170373333
1.92140270265838
2.11922253510108
2.34587997043231
5.47714985816046
4.99165365498461
4.96037032577896
5.43944425934084
5.89413250883778
5.56539786469965
14.9409905699145
13.3723344006699
15.3080152138701
17.2743295227093
28.6670517622707
22.3275039596092
93.6215751654112
113.256428730871
137.091437490501
105.480333590248
22.2096828009076
31.2997633383472
18.0814096096429
18.4202971374672
18.4336524179283
18.137143988431
30.728548878282
22.6665100018899
111.62400434571
143.457161672403
121.12525103374
27.6994146530909
22.0329295721405
106.353622124668
96.0505442278896
21.6251613632455
22.0038339564374
97.0533370506215
94.0322724550072
20.5581544230459
20.6698971873564
91.2611474119523
87.0497257763427
20.6575177130316
17.5938627415742
84.4964946849661
77.1025674570561
16.5280748092416
18.2655652409159
65.392081521084
54.6504178759816
16.6773795703795
11.1560528308045
39.7626884192913
34.948102401364
9.31604870765569
8.35184609329971
32.3668823338394
30.2549358226092
8.26471733852229
8.253982388402
29.1212919529432
27.4230571184031
8.13457542342612
8.13008129641751
31.4657543578066
40.5448242075303
8.69524234716477
8.36956292760678
37.49321667497
40.9016617787065
8.34620291420896
6.8319036224575
36.6659110561414
36.0411349704292
6.78341717252769
6.77704451945816
35.8800626403312
36.4695482731758
6.81188996885167
6.89233467098113
37.5487207205106
34.3163047215807
7.62773088184508
9.92813550439257
33.4945919511971
28.093645885538
6.47333499695435
6.34155280547894
27.2414396090898
23.3247250488959
6.29359008801418
4.7723401676652
18.8791691456487
17.6166112813064
3.7283895299348
3.2260540822856
15.6485537364726
13.4120554700408
1.77132679975896
1.41440345154602
12.5006158678355
12.8236215169665
13.6192668888089
1.00347077801718
1.00924248642417
1.0079759639961
1.00297294625423
13.6044794384485
12.8124967966351
12.4972935788522
1.4210395535515
2.02119959672452
13.77157333591
13.9329129432976
14.9140124206418
1.00339038323686
1.01192774494406
1.00125247095351
1.00031774757561
1.00022746207352
1.0005363860428
1.00029944683602
1.00010958270259
1.00008595589073
1.00033742952799
1.00060376569961
1.00009446692569
1.00006971682099
1.00212467906774
1.01790032654392
1.00177129517479
1.00074998621367
1.00018471548663
1.00429319342414
1.01464731698579
1.0365697764325
1.01301244321776
1.29171583188566
1.37531909962577
1.07450688223554
1.04165580882701
1.09481528272771
1.13573278243242
1.1653230150051
1.12100506728343
1.1623547181997
1.20814838533001
1.07016477402005
1.05899088574925
1.08877575612798
1.10058215226203
1.08158913971957
1.07380699374809
1.10684481146854
1.11640019449475
1.10621812177191
1.09851644106009
1.11584550116089
1.12635148932519
1.13684958874059
1.12261083245127
1.14774367930936
1.16251484481288
1.1625898691224
1.147662492491
1.17565261693941
1.19159604462193
1.22622064788651
1.20900457610177
1.24718890238165
1.26764876567279
1.39299489126311
1.34975247585565
1.38340267073604
1.43201736761362
1.68862957630527
1.58409745196595
1.61940756461748
1.7187999401752
2.20530536230337
1.9587169879255
2.27196551650241
2.39651451049799
5.53614672142107
5.13480873225636
5.81723291085925
5.92996805873572
8.64840595363804
8.52648233280715
8.59753671386778
8.63441044035959
16.4810107711222
16.2415149418904
15.714394693883
15.2258711674243
21.5697140518929
98.3095406040283
110.43702956796
26.429411898604
26.1772358400672
112.897550738356
98.360005663484
21.4237855349285
20.415253239916
93.2666490409862
92.1441805705259
20.7248887347333
20.4143294343778
94.7372895734024
94.1494287599595
20.670680497497
17.4707879217972
73.984014156084
71.8132152414015
17.3345437069068
17.1216233758935
58.7258132889806
50.1918581198873
15.0257557252952
14.3030084247484
44.1341697714318
34.9120789350969
10.2542406179995
8.48517901471869
31.533393442979
33.8496801750635
8.25326303785121
8.18297111682597
33.0288450857801
32.393873483862
8.15748371339381
8.67119500243901
41.2778664342788
40.9342227179391
8.33372239623048
8.34429333619337
41.048458097659
41.9802890419797
8.38709338128209
8.46377927301615
43.5359179578994
45.4928966418071
8.68450014676818
8.10064284341751
40.4503779255714
40.4158242807094
9.79294659640431
11.4740383415178
47.7745221285858
50.5825595272673
11.5684583150564
10.6771778681952
39.6695892296508
29.899527401896
7.20615414981443
6.11524537797549
24.6100906600876
21.9957132091244
4.59407952251696
4.46613115099141
20.6590084889568
19.1420917841598
4.14994957707473
2.52962913945471
15.5314378156365
14.3688364466116
2.07558964556485
2.28244805504496
14.5219548475668
13.4059991164591
1.76203713150069
3.21132997686709
15.6657176946791
16.2725384008124
4.00747781640392
2.76517962741061
15.2036084924416
15.2732522787835
3.30452030540009
2.07517781496812
12.7257497119471
11.9335937211175
11.984680615238
1.00186605463533
1.00781095170706
1.00207921583212
1.00041488013868
1.00145607756968
1.00839493579865
1.03932275684621
13.1930632283443
13.8435919475112
1.01381824565884
1.10447339622266
14.3406538566087
14.1245115301877
1.11384821228825
2.40040818489834
14.5973919044164
16.0448211432075
2.3321259239736
1.80920906586732
17.660510368748
20.4609211833252
18.9785965312525
3.72596264411462
3.30441992089794
5.48067390898894
5.06281342977704
23.3117714007529
26.3736520024102
29.4749607573492
25.7990184504068
5.09879169105368
5.16671442726998
3.29684688789013
3.76701051635193
3.75921525095537
3.2889746708213
1.29615731246372
1.38422895225242
1.39486223646908
1.30264983069426
2.29235272083173
2.48259785681106
2.73180893229417
2.39341241411479
2.63071896463931
2.96340272733973
1.53097833571073
1.4308796740953
1.615802614493
1.66353074719688
1.25972331041317
1.2172178735053
1.2971479621106
1.32813637566061
1.13514795743445
1.12195599433699
1.20870578427957
1.21701957179298
1.17167977492769
1.16038133446585
1.11525866153903
1.12637798741354
1.16107432701728
1.15106029597705
1.14371998613378
1.15451494003239
1.18927835257163
1.17791307102641
1.1783601759849
1.19394742220804
1.23229044483649
1.21570645104305
1.2582914423436
1.27823278061541
1.33352378814919
1.30257104906034
1.28531768706382
1.31673876398726
1.37109698588762
1.33048846977148
1.42125710260389
1.47620853877903
1.49333889957625
1.44056908984874
1.47074564332983
1.52319642194371
1.74239226284948
1.65270283612589
1.67100076463164
1.75619695013319
2.18808354208428
1.98319697140617
2.02780279665502
2.23463080432202
2.41775736201054
2.29247222229012
2.36154234013888
2.42232480123058
2.42258563567762
2.65206897126118
2.28594394111298
2.39791692614313
2.39706322786536
2.27117971985291
1.9813710512507
2.20681132603927
2.18423009030863
1.96281235976457
1.63931809974159
1.73026072107025
1.7236742140398
1.63245621507187
1.7412323688539
1.78393467003665
1.81096673991154
1.81131739277888
1.81683843023852
1.74568917935909
1.7407887667396
1.73789412441919
1.73256879540204
1.80485568055217
1.81546786657756
2.10088839741322
2.05988625974951
1.92804524542152
1.83703612809575
1.84916406613425
1.7954403263677
1.72307692635227
4.21314667569615
19.6867184468285
17.5848118002686
2.87625188305847
2.65317464715637
16.6705052179767
17.7738849796559
3.16571159877195
3.10175001699171
16.2364828387502
20.8885433865697
5.54742729856762
4.08523927946278
17.9327482092166
20.2404745451094
5.34924343127484
3.98547684569126
19.4065915786566
19.1073585947551
4.72766961430674
4.91646633750898
18.5196921229736
20.3521104053854
5.42982201024099
8.31383555458663
26.0332374507979
27.3471728789902
8.93466377275264
7.58217352644693
27.5643669258
29.8356928426443
8.18655502608479
6.67992598865391
5.91712356347556
29.3780213257121
29.6871814601282
26.8566004075128
5.42632936865264
5.19957766685789
27.8431860850051
35.6876072560096
35.172745619021
7.8867802541599
8.58834941999706
3.67399071725625
3.14122808356828
4.40836838005401
5.05627444480569
1.98757925567325
1.93324780779716
1.97211534241162
2.02635912616295
1.3761805932975
1.34252201747805
1.32120099437825
1.35509418118549
1.36005294693867
1.32522704453313
1.37370671367065
1.41084782115154
1.26257928139494
1.24354402911974
1.246841033267
1.26061153285301
1.21114812103804
1.19530596083635
1.19147062229575
1.20865704963224
1.20051368381531
1.18876799523257
1.23574922512033
1.24845622544972
1.23211354890084
1.21949712070208
1.26815119007612
1.28409502855519
1.34637107869908
1.31779374854773
1.37519177600178
1.41509952216941
1.39297495867032
1.3526717575595
1.37597050228131
1.41454263115586
1.44763680342214
1.41109271525427
1.39303640522333
1.42677121944974
1.42072971044545
1.38464612826886
1.46829143511727
1.5184234298242
1.54885479389522
1.49807263067209
1.50426011004317
1.55568536424479
1.76576431861669
1.67804204134779
1.70508332000932
1.78533645588137
2.199092869104
2.00944992698293
2.07328804841887
2.26723463047802
2.4516001605472
2.32506838532237
2.54838046276919
2.54540723520811
3.93052704504017
4.13442772763082
4.17699201218239
3.95593050090589
5.89966927926706
5.8224070398713
5.85178149075748
5.90065499908459
8.56371380333095
8.58279526756653
8.6368582440063
8.57868753389551
14.844557029305
15.5050290384904
15.4369710728047
14.7661145948699
21.5096007569599
101.515008778634
117.402369680292
26.1537969134938
26.2490387138749
123.437788733056
106.27215713413
21.7015449843982
20.3994165538219
102.072507559026
96.8997485665974
20.3445013168028
20.6817177920414
104.011192705406
104.406208539463
20.7898607046321
20.7292614481346
98.7698388809085
79.8760399639612
19.7600415918952
20.6021589962585
71.3376310290312
63.2459773106924
17.302966394725
10.595580547096
7.54984930893388
6.20275447618009
5.76289290747397
13.1442038086766
43.3336335185142
36.2010034467046
9.47684590450534
8.85603856636173
44.551023577456
42.8712843031819
8.66829956451356
8.65755442784593
41.7640428142181
7.60605754144673
5.3898040499272
5.57546215706272
2.52666475640907
2.64690769492002
4.16119887928575
5.10748849131778
9.63120042512743
40.3054196786031
42.4442459096564
11.0258156928409
10.2809444776911
35.4939698584162
25.3375678485197
6.04366218759981
5.04950535517444
23.1096482796953
25.9288190850974
6.62061640304683
4.80188454344679
20.8876192691566
18.6575309103152
3.43471054334802
6.36505671873774
26.2695691349738
24.7672154982293
6.00454280181013
9.07329894584844
32.7477918632749
42.4667995613267
9.55640082717822
9.59190050694646
38.5014252247872
33.4325320189739
6.75754497284058
6.60978735354219
31.1274133950547
26.0396388791438
7.07456206254813
7.55711277001186
25.4633141244061
23.7326756196287
6.13889836252086
7.92268117729255
28.6101957155259
32.2169718551098
10.6041005483953
11.0714241519383
35.1013422531695
35.4543223030755
10.3168054949452
11.8066851465498
44.9234808734894
43.262749130899
44.1087863530455
9.26791898938126
10.1104542187015
12.4855330377759
12.5571351885938
56.6006191097006
51.061454840662
54.212552018431
13.5930580479009
14.7625141640248
60.514871057738
60.783846560807
74.1750994611252
17.5488539744157
15.8473685368959
12.7075381590888
12.5909589304887
11.6143648109295
12.2248028668674
5.09566218530721
4.4887014616891
4.49835129515777
5.08751567829883
2.16570226725567
2.06941857752358
2.12876834018416
2.22005410762568
2.07389165681438
2.02659282502855
1.380915255071
1.41378532957318
1.4637507189468
1.43078396919778
1.49351924401402
1.52895257599641
1.47225697500715
1.43469967624083
1.29996986778214
1.32041430961179
1.31701168244258
1.3016606005781
1.24658217659102
1.26402127100638
1.25821373362941
1.2393618797469
1.29520201237607
1.31857711181114
1.30609013811498
1.28984036401697
1.34626896105959
1.37523681297996
1.45292360416473
1.410891305231
1.44353323207789
1.48295087040687
1.5288189450291
1.49089156504785
1.45634650225718
1.48778958997319
1.48354808105849
1.44942022222926
1.42535683194057
1.4600614032948
1.50220804481722
1.4676723718153
1.44868153656658
1.48499701953923
1.46364290713097
1.42925938028277
1.41833579509988
1.45309822970955
1.4855212068963
1.44974224664171
1.52530380054362
1.57756516860486
1.58785739269819
1.53503217714708
1.70058161947787
1.78884019039424
1.81589238816491
1.73560936208956
2.02989969448087
2.21325252970377
2.30263156441444
2.11164214208481
2.35952940324623
2.4904591073534
2.57893877095898
2.59382073429002
2.6409143417428
2.61704854963632
4.52533751537597
4.73711316424408
4.69250671844149
4.45979818678023
4.75128441100178
4.9995244040754
4.92250961083279
4.64572022805794
5.93770460860049
5.90313355482637
5.9707928351657
6.00741070148953
8.69481373465646
8.74604913473292
8.8919832962853
8.86002631689452
14.780001149172
15.4480625933104
15.5163059162493
14.8431121228976
21.9554702394948
111.894103818343
130.412015313081
26.414910167703
26.6490624026375
22.272995215179
118.346766960279
138.52399091584
147.749884471014
26.9336154681486
22.6560574462123
125.405387234572
121.470173454666
20.8983639488302
20.668198792656
114.633225266624
108.118181769379
20.5044998505216
21.9708232756394
118.499163223173
117.869454822135
20.9475437598273
20.8442843578229
110.835558044849
107.591335904738
26.2213556619735
25.1114755560072
94.1850826614259
92.1578552472519
26.5658583641633
22.3479479220985
71.4843361019512
65.9416883423919
20.6967717841034
17.5078273980199
58.3825832322441
56.469483558396
13.4960450852053
11.489247510892
48.9819248722082
7.73060158183117
5.35785310872597
5.74446966770732
3.19109918224659
3.06418993604695
3.28872299012695
2.03440895698654
2.66794925650571
3.6214991033614
6.39569302778054
24.7251151891949
26.7266167765252
7.49264369356816
7.96143301056584
31.811020517395
41.2817401008556
11.693213975052
9.72447022148745
36.9605831074105
33.2205587963334
9.78093654685959
9.04666867985551
30.4642656667914
36.0810865554574
9.10878394082433
9.56381508941376
46.7340093765647
44.5083121949861
9.34194278207386
9.37830125977362
43.0991558552548
42.4701436048815
9.28622237491716
9.20800171708957
42.6346455404795
36.1200248876505
6.78644155481972
8.26691771704784
40.1717763730755
40.1309029934012
8.23091010009584
8.23724467605814
36.7837689958764
40.0310273953473
8.51315655988141
8.22888510307579
31.2174466331275
29.0415717281549
8.44086925829485
9.49131500190463
33.3469326831607
41.4513942858515
13.9267136990114
14.6922387156725
46.0160911132454
54.4725061353965
13.8046073296353
15.9727695525789
60.4027884302469
66.509804034602
16.258322898506
16.161451019691
67.7221101583273
61.7106780122575
14.6414988575831
15.6248521605436
16.9691372380619
81.7718665142221
63.9351915826801
61.7622748871514
78.5276434902981
16.7196033244171
15.5059405058914
11.0966297083141
10.9864159674778
4.76784285890496
5.35898563679639
5.14638120767784
4.64274935974754
2.19959549453973
2.28846117363949
2.12257411535636
2.07852926090016
2.13953950431265
2.18306438504192
2.2583703519968
2.21218864434904
1.57027033079693
1.61082999460369
1.54691209394347
1.50562743511342
1.36860838449749
1.39424012368083
1.38838487170605
1.36807955187313
1.30789003813112
1.32975491510336
1.4132498622913
1.37758189964429
1.35660998974485
1.39278351865623
1.48598096980701
1.43428657050176
1.47789547285472
1.52837256965446
1.59647875661118
1.55421029895235
1.51512501262843
1.5445566609719
1.61806267335841
1.58710810350762
1.55248619655248
1.5954254363222
1.53680157688435
1.50595212554167
1.49436362928275
1.53100600079188
1.58063432260027
1.54092865829084
1.50788468959159
1.5442231041082
1.52225601966309
1.48404019806125
1.46204602697686
1.49869509428538
1.53147809117398
1.49217357893522
1.4790011042544
1.51705118912955
1.60419902970853
1.55045394312289
1.56364738967546
1.61975424217556
1.81117731798872
1.72144758439291
1.76387659658093
1.84646312845169
2.22894933362476
2.04850985758532
2.14771246890062
2.33919098048814
2.53368819756393
2.39591903750863
2.43344937131641
2.57711991220713
2.65476217884739
2.68305119458938
2.72846858246039
2.6948213481926
2.73460286193026
2.77145460872531
2.81964259659072
2.7775311083044
4.87185543413298
5.15917091858058
5.07833745143793
4.76427992313083
4.97848002942825
5.29078473152655
5.2095388252906
4.87312713150385
6.10141134097945
6.04264154423609
6.10514198308578
6.20998867789694
9.05603442939126
9.0669334630059
9.26223453168078
9.28536211565161
14.9530001148156
15.6377790375977
15.8088847247557
15.114560181983
15.3267841267242
16.0231715382523
27.2704762471484
158.260593517456
133.113431742898
23.1019886257252
21.1723600327809
128.588490081141
145.057417394503
22.5140395215468
21.6308143903729
141.357820791526
132.821378060989
21.2911247515411
21.0941988005177
125.024894625165
120.593320504845
25.21331613405
25.6698209699512
113.838038949381
138.616877906463
30.7100191533756
31.7330406483
130.225718524136
132.07795914745
32.1443247013325
32.4362854890924
119.00335326639
133.123611843326
31.5471759509506
28.4195053493411
25.0349418694077
27.0325775745064
109.66435013788
104.819519998917
26.9104720920969
26.364705779671
97.4944588633445
94.2045290821561
24.8821612806721
24.4662157064778
97.2593895514691
101.721987624549
24.62580314433
17.9283601180181
71.4831615132836
62.3284147751133
13.8261809553679
9.4707205487685
50.5699363735577
47.8784394588126
9.02771234960297
8.35418231840351
43.4618017065967
51.6991386006852
10.7751544179152
10.7215697878656
52.9117304542307
50.7310040249214
11.4960381895587
11.7756725867019
52.6261677155672
55.1827076138157
11.9417554485596
11.0711118421491
47.3695141584042
56.0683295789112
16.3677308463461
13.9276514427546
48.2727959532997
39.0785763959676
11.6242675567474
8.505177177106
32.0227672562412
29.02022999404
7.81955848969529
7.02716271718131
27.6781410934346
29.2242493229352
7.85059651373427
8.19704397469735
34.2607339142593
46.4267690426506
11.946885167502
18.1300627277108
66.3067646947261
54.2796080382728
15.8661874626095
12.7245177668548
47.1382315347544
41.2204241465607
11.7235264094127
11.5151811177439
44.1650293978736
51.6595135880549
10.1415651307193
9.79198644904839
49.0303488529572
48.9212806078794
9.99867455259244
8.02483105807675
39.8170425468899
44.5499501875146
9.77040751874806
9.12169205484077
42.6496861075029
41.0676140848601
8.66218381298195
8.39218845306719
40.1713641043783
40.8965315865567
8.68042439942449
8.48161696331279
32.7582493659505
32.0187196222448
8.73266317304473
9.99015246865544
38.1422647934419
52.3276270253175
14.0793980724405
15.4378166289902
66.9664545576507
69.0927471962739
16.2386365184605
14.4746357139223
61.2388632265205
61.6822093191118
14.4950096809559
15.5935346187512
16.7213196028459
77.8323287957382
61.1120444261824
61.6452574571123
78.8292832872579
17.0187516504442
15.9674328556452
11.4424773237162
11.1659114912243
5.18044824326238
5.78163822307052
5.25127727088917
4.79312846115388
2.39703772816022
2.48582897102453
2.62834475809481
2.51896524387869
2.29332888413938
2.36014129652141
1.7173210634455
1.65594277739663
1.5842157697972
1.64282238010572
1.49131363251369
1.44801601069426
1.44583875783714
1.48233331383898
1.61722833845176
1.55610788546055
1.47387646879333
1.52901480716013
1.57600791820953
1.53751551621142
1.6449471098964
1.66821337394798
1.59769211842671
1.57618606461904
1.69370185521061
1.71685901771058
1.70937003580398
1.65527221031515
1.79562751113651
1.85893907449693
1.7168838776678
1.68360582322455
1.62807187813966
1.67463048729368
1.59402334649802
1.56233999287482
1.63281060208924
1.66553793702946
1.63627036476599
1.59343433893355
1.54900545470453
1.5874136199201
1.55945765772855
1.51803430500579
1.55290216020885
1.59856336217493
1.56323217171322
1.52146892058471
1.50657490287701
1.54709850469163
1.62878887374547
1.57387912809086
1.59114022091978
1.6506801306486
1.83320047192237
1.74193925106004
1.79147555242593
1.87703841525295
2.24598234136299
2.06772856868966
2.18406311794906
2.37589011993121
2.41180429152416
2.21982312397476
2.4724521937661
2.62303057991372
2.66787182016672
2.51145811845426
2.55121886930944
2.71186902783765
2.7528633391936
2.58965064527153
2.86635450480223
2.81944691253269
2.86387061557222
2.91807038727678
2.96738231143729
2.90587908682588
2.94937280652504
3.0204123702578
5.40540492479628
5.08001505374052
4.97188038011166
5.32212425135783
5.50055717525209
5.17130168958651
5.05388032948173
5.41312996695243
6.16088445733934
6.32660684346005
6.44319562115969
6.20827264002087
9.46759353864535
9.54228699620604
9.81581207645891
9.66807564944203
9.84251758325607
10.0868965336922
15.5819992160508
16.271381304419
27.6712162565741
170.229882401865
141.633079044822
23.5951412418294
21.493189830847
136.136962039739
155.22550385885
22.7874546152839
22.1667425541865
150.56695176002
149.662184239351
26.8602001443487
25.4913518086998
137.591974246598
128.420089893507
25.145603685622
30.913487573929
157.118889852368
143.136445151143
31.6811131140587
31.5730251450078
134.241739630981
102.889229085999
27.2779815484123
27.0600191017299
102.869711903648
96.1109731985015
26.0480807369935
26.2913648462676
104.334759018493
101.966458979991
24.9630962464825
24.5962452754521
107.506028728025
103.615894264851
24.4495211379507
22.2285693236747
99.3062266058235
99.2634256104035
22.3328752723901
18.6068454687676
74.5475769014787
66.3276882392954
14.5099871474437
10.0611784995311
53.2627339617382
47.1166937848767
9.07723911928481
8.65900937021512
44.9571494879625
6.22562112921674
9.53391446018592
9.50726962523127
11.1300506345929
55.3027374264638
58.8159942070459
12.1199660264253
17.4168414352797
68.3301029249043
63.7786979547535
15.9402749213285
25.3758424995878
88.337616655816
78.1497277887289
23.4777238599564
18.0534459311089
58.5769348632584
45.8356384855056
14.3862393057176
10.0561133198049
35.4578402408953
30.5209819515486
7.91768214038992
7.25514010803178
29.1250276995888
30.4236421547588
7.975152775696
8.41179645773156
35.6316154424928
48.7947048154084
12.0536177650766
18.7356917173602
71.8870652742755
91.4226166726687
24.4673662881764
25.8249534723244
119.805937562298
114.074360330428
25.2033226700223
25.4788848560466
110.632149556539
101.297442389392
25.0598801111724
22.8846406015283
81.8867722978255
59.6721046480265
14.4130495978041
15.2729054779258
60.5979879142819
52.932286320861
13.5822867089203
15.3315818979424
57.2591126087206
48.3279398440485
11.4636230109857
11.8076092483021
48.8831326165158
38.5781046752841
13.4625845808969
14.537257970468
37.3000648029028
44.4349924349483
17.2080343401116
22.0945115825577
64.6763155177685
84.237309789951
22.133350572852
24.8340826402993
91.1228323244793
83.394426788924
24.3624404857415
29.7002267826587
33.5926783495241
133.30166671249
92.1611062314489
88.7913159126356
126.646552844428
29.9657864048352
26.9022807232132
18.0123079218862
17.9061825551534
13.5920858038715
13.1365547480571
8.72023431788148
8.47766203579414
7.83023981982682
8.30989508131509
6.98629709129552
6.55922978335923
5.33578297710445
5.67627466850315
3.92710300754308
3.7978742317705
3.66481989443372
3.77287504606508
3.54354982236092
3.44470785999266
3.21833447306841
3.30573938013016
3.08005765794379
2.97631012975033
3.04344297164866
3.12536212392886
3.25527356847356
3.14504276813684
3.2292642520077
3.33243415770694
3.46679566981597
3.31454852314392
3.34534594347993
3.46736547144768
3.53506144693655
3.36105617982393
3.27619309507919
3.40652110725175
3.11806575125858
2.99202558122683
2.82572732299954
2.94126917985649
2.51918643514596
2.47036882251788
2.26180981679223
2.35364180773742
2.04728613480495
2.003047239892
1.8590548491672
1.91347118521065
1.75985327315415
1.72532648614881
1.65879813624842
1.70424876378408
1.63662117094577