/*--------------------------------*- C++ -*----------------------------------*\
| =========                 |                                                 |
| \\      /  F ield         | OpenFOAM: The Open Source CFD Toolbox           |
|  \\    /   O peration     | Version:  2312                                  |
|   \\  /    A nd           | Website:  www.openfoam.com                      |
|    \\/     M anipulation  |                                                 |
\*---------------------------------------------------------------------------*/
FoamFile
{
    version     2.0;
    format      ascii;
    arch        "LSB;label=32;scalar=64";
    class       volScalarField;
    location    "1900";
    object      p;
}
// * * * * * * * * * * * * * * * * * * * * * * * * * * * * * * * * * * * * * //

dimensions      [0 2 -2 0 0 0 0];

internalField   nonuniform List<scalar> 
207032
(
83523.6331985563
83537.2584764396
83558.8671312321
83536.2613285981
83522.8027530835
83512.9029748401
83500.9500869849
83492.1528091778
83496.1034538352
83507.5748319968
83507.6475628264
83503.9682804146
83504.2335965554
83512.4985855116
83512.0501067587
83520.2880332881
83521.8029604507
83520.7887605092
83521.108140304
83531.3778450601
83539.7040983312
83544.1779044162
83531.3388509907
83522.8716444773
83523.1035407052
83530.2970343124
83529.6214936057
83531.7548197414
83537.3502565961
83536.7141875924
83532.1663609621
83533.023200429
83534.5204635787
83533.2664191196
83531.8501103261
83530.0223487871
83536.4848184956
83545.6161255296
83533.0941617541
83533.0635184383
83546.153414393
83530.8525443938
83528.3537722037
83532.9901068999
83547.9546163247
83489.9860528563
83502.5288929603
83488.7361575015
83465.822499323
83471.0971630738
83486.1007965606
83484.2589973955
83459.4763550979
83555.5479374832
83554.3914728082
83517.6929813326
83509.9330977056
83502.5495135783
83502.560412171
83503.0979582458
83502.5278500353
83501.5797106184
83503.1600969861
83497.2453584606
83497.0190223289
83491.5946650235
83490.1224871014
83472.2034458358
83488.7817499028
83507.7069531295
83501.852944394
83523.0464308536
83563.3256822477
83547.4543205175
83526.6906867243
83510.0143569621
83513.8942314261
83488.7706656323
83478.6179231224
83484.5483176931
83491.2420375082
83495.8147592756
83494.6605139714
83495.4234776115
83497.0017843087
83497.0774681454
83496.6848666628
83498.0157810415
83497.8585497636
83499.7741611939
83500.0123633374
83498.3436060142
83498.8478580356
83501.9487771226
83502.136936424
83508.8966938619
83507.8692542921
83516.2996535171
83515.8858641049
83524.5084448211
83525.5411721282
83533.4977640161
83532.7027988645
83540.614756311
83541.0894492873
83535.5966205932
83534.9974892718
83541.2346841321
83541.7393213671
83536.7274268373
83535.9049090388
83533.6304184689
83536.612979351
83535.4007799342
83533.2793261361
83523.3546803822
83532.755984703
83533.1243950088
83537.095866652
83552.7751365706
83536.2817057746
83537.2525424801
83547.1145082477
83544.3943259885
83539.5140499321
83539.3014476732
83541.4206580886
83538.6510588708
83538.3431563823
83537.336098853
83536.7104985246
83535.961062044
83535.7033818406
83532.1813978494
83530.8897601561
83529.5251906514
83528.4027867502
83527.0387898482
83528.3696983836
83529.0475926041
83526.8707155917
83524.3092457101
83531.3952694353
83515.1900446751
83519.3900628995
83518.2897597638
83507.9824610007
83548.7123093781
83512.945003428
83505.9284747946
83501.937425737
83499.0045041156
83496.9407297859
83490.6401522052
83488.6302846474
83477.4066050148
83487.427862223
83499.5254261153
83506.9774362728
83524.4732033614
83503.6226946213
83494.7926912336
83510.3122412631
83498.8789425788
83495.4699161434
83496.8746779518
83498.0096221445
83501.1747250113
83499.3827693683
83492.8547830487
83490.6727240129
83492.8609874947
83492.3847966807
83492.8315554909
83491.275841259
83492.2824489312
83492.8167871668
83495.081140496
83503.0214174908
83490.2634265105
83488.7232554069
83498.2748670615
83492.7534508168
83490.5536005319
83491.0980572991
83491.7325519612
83493.2140835219
83492.8794633445
83495.2199582858
83495.4279002888
83497.5692957283
83497.6571511782
83498.2315603666
83498.1559709962
83498.5764177462
83498.4944265076
83496.1596610054
83496.3400020591
83496.4754086899
83496.3016955546
83496.4602553026
83496.6357693071
83496.7476585111
83496.6223749005
83496.6537557127
83497.0152547602
83498.2443992867
83498.0597021103
83503.2401648692
83503.0976058431
83511.0746607885
83511.8115864861
83518.1391835369
83518.3800066473
83517.1193117295
83516.8044202741
83524.997224518
83525.5711245558
83535.1873931324
83534.5898618351
83541.6219887987
83541.910325933
83549.7031516233
83549.1627353347
83554.1687404999
83554.7463671511
83549.8251569149
83549.1046755417
83552.4609741981
83553.6846109937
83549.5739467965
83548.5306218194
83543.1993049935
83543.0620624658
83541.2720261481
83541.8253796014
83541.4717741347
83541.0010094532
83543.8330396112
83543.7788435756
83538.7208925423
83535.3189557133
83538.7772849589
83539.8186276713
83542.5825715324
83541.2002845419
83538.3024180971
83541.4795576287
83538.8639737246
83538.7034232152
83530.8784986505
83537.1953669458
83542.0954904712
83538.9265038388
83530.8539804784
83518.2959687619
83504.5442478657
83489.2064733809
83481.5289201094
83473.3111714897
83476.6770716153
83472.0041297628
83479.4734084076
83491.8862561874
83506.2845958023
83502.2794311495
83493.0707883631
83496.7055685635
83493.5651523091
83505.5135934942
83502.9974508269
83497.3229613304
83484.4174072901
83488.8094368239
83494.2104780327
83492.7503068408
83490.9565587366
83491.3625667519
83492.1158918615
83491.9131963932
83492.3302761083
83491.3407832456
83491.5592829866
83490.3444468662
83490.8115387472
83483.9907448911
83491.6245746973
83489.4402919449
83487.6760382731
83489.7531531631
83490.2209205843
83489.120919152
83489.1031068817
83491.0876134703
83491.1225827058
83493.224967886
83493.2882005042
83495.3373445916
83495.1260190671
83493.1351128095
83493.2897280108
83494.429965789
83494.6442910576
83494.4755268517
83494.2828060628
83493.1466640482
83493.1913421334
83492.9239902645
83492.8090771966
83491.4012074555
83491.6929944525
83494.9261418255
83494.7112692705
83496.3523843134
83496.5815600363
83501.2821888294
83501.4393254544
83511.0740983862
83510.1455831455
83518.0295570608
83517.7984121193
83518.6129449914
83518.8511829153
83529.3725370374
83529.0208114146
83527.4835808654
83527.8378416136
83539.3190737922
83538.7804092855
83548.6667096571
83549.3126794556
83546.1015744442
83545.4620636479
83553.458044619
83553.8023967418
83561.2386311926
83560.9930822226
83568.9135161237
83569.0931129202
83562.5139429623
83561.9194165218
83567.3303940274
83567.7324224264
83560.4600363211
83559.7903251202
83564.6230236278
83564.5303382784
83557.253005363
83557.3559986281
83550.9040009768
83551.3559748637
83546.3256361002
83545.769218761
83548.2842845393
83548.6390353575
83545.775587462
83545.4410314173
83546.7022238676
83546.755750575
83544.2685591082
83543.7349349882
83541.5635559107
83543.5923882551
83545.400402424
83554.1841409547
83544.72056859
83543.3842804613
83544.7417344089
83543.5841952831
83543.8259079318
83544.9560734324
83540.3561566302
83538.1445845624
83529.291064244
83537.7069459239
83542.7035895042
83543.0286581577
83542.0964605882
83542.4023830017
83545.526388352
83541.5423696136
83537.5162285211
83532.7489575471
83535.1651269124
83536.3667772238
83533.3218841703
83531.2861576283
83533.4996815444
83536.9426945953
83539.9800775289
83540.5041370369
83530.34818582
83540.0412386319
83534.1214820128
83530.672754673
83531.1241177989
83529.7523243929
83519.5170713779
83520.062112272
83521.9323243715
83521.0516644807
83522.8757387269
83526.5774777513
83519.5351412103
83516.5701590102
83520.8933800188
83526.7499513176
83514.1439411704
83516.9957781913
83515.8370664745
83521.4939403437
83523.7096094615
83514.959273347
83514.8201021981
83529.5852968202
83515.1713708824
83509.3206763443
83504.4446520118
83513.3692229042
83502.9768966182
83496.9061719758
83485.4291149227
83482.8538619942
83480.1936504941
83479.8053177963
83467.2357146222
83463.1770717006
83442.5881723632
83456.0444069075
83438.3969774021
83432.3216721685
83468.3235240102
83468.438803016
83480.8608268159
83475.5159109012
83493.04955445
83489.7306838242
83491.2047571034
83492.2548221897
83488.8061115881
83488.3613319984
83490.8458755066
83491.8496119403
83488.9999034682
83488.8341281391
83488.7004756629
83488.4028769471
83484.3625136632
83488.1988638675
83487.4382948653
83486.8788611416
83484.9727097573
83485.3036164304
83484.9102355402
83481.5967321806
83487.1590326859
83487.3089350965
83486.1680571399
83486.7916419789
83477.188996206
83482.2895713848
83483.1668692056
83482.3684558943
83485.2591106566
83485.459967775
83487.1782542312
83487.1209841216
83488.938880642
83488.990677496
83491.1115550925
83491.1404507219
83488.6565353669
83489.002257187
83491.8210979597
83491.6179518944
83492.9724927902
83493.3414719506
83494.362662519
83493.6529770905
83492.9548966882
83494.3408242604
83488.9007365437
83489.1440209888
83488.2677968346
83486.5901821754
83491.4733286956
83492.0499551547
83495.920267095
83496.1806970367
83506.195779254
83505.6488226534
83511.7184964856
83511.371600574
83515.6308832984
83515.8669995379
83526.2013077783
83525.6886818745
83528.3138115913
83528.743647349
83542.9998145396
83542.5849579609
83542.4206784477
83542.9960201369
83556.7414655058
83556.2307874621
83553.438754314
83554.0427471452
83564.3508729047
83563.9971780885
83558.7707258122
83559.078047735
83568.4003437172
83568.2002703959
83577.5146049848
83577.6029288558
83587.2109000515
83587.2883818659
83576.6148399111
83576.6319131048
83584.299981752
83584.5376904435
83574.0027961027
83573.6951367509
83579.5535628044
83579.8913616159
83569.1832936147
83568.6855223469
83560.786211123
83561.1119350162
83553.8303620054
83553.7768191268
83555.8097565912
83555.9173933306
83549.1440535491
83549.4761128061
83548.9461451507
83549.1677668317
83545.7397338525
83545.8801744444
83547.0040067462
83546.3258091733
83544.5026668056
83545.9504452192
83545.2255791695
83545.2408698163
83544.6620476784
83543.9425516158
83542.9790891638
83543.4104054351
83540.919440585
83541.4395264156
83546.3896261103
83543.1480158118
83540.4527893848
83543.447388625
83540.5717819344
83537.4176737666
83531.2141384196
83533.5722544336
83523.2012689639
83529.5978888675
83523.562065807
83519.9950238198
83515.0344870755
83514.644952005
83502.3120480401
83502.9953311135
83509.6969561313
83508.8415941918
83512.2414868516
83512.9233772639
83504.6969328445
83503.8191115605
83509.0348329856
83511.5757903799
83518.30501154
83514.3191769438
83505.0654747723
83505.1901717396
83502.9262746184
83500.1830165479
83492.8726971358
83492.9048724891
83487.5265488963
83487.5179955538
83478.0521574235
83477.0573604659
83466.7608735877
83466.5679653764
83454.7480482377
83457.1875974142
83450.234603287
83447.0908056332
83429.1104269405
83425.3395611723
83429.1681447573
83420.5679750801
83407.3785593068
83408.3713449049
83384.609118899
83385.3168306145
83428.5547051603
83428.2691289915
83458.4735339251
83459.5934795495
83474.1705227934
83471.7554475623
83482.6554908396
83483.2086116623
83480.0451018664
83478.7368214322
83485.3682269904
83485.7470666554
83483.5757653458
83483.0913229118
83487.9034310082
83487.2550096628
83486.0513028397
83487.2146418754
83483.6560932414
83484.373718982
83483.2988192503
83480.5141869116
83479.704529317
83482.9506568459
83482.8935329989
83481.1920573638
83481.0315086474
83490.4629888516
83486.6654979254
83484.6256227332
83487.5938217895
83488.567043497
83490.7599197781
83489.0366284476
83487.1855114411
83487.987210396
83502.4426543299
83492.863329404
83504.1169829169
83533.2296640691
83538.5643461745
83497.7797047963
83473.7527283849
83447.5255064979
83460.9335454143
83478.3376268208
83482.1250558298
83478.6852156335
83475.4230774242
83468.69710402
83479.6425046017
83482.9272345495
83484.8480447949
83481.0173306294
83463.9048798389
83476.8856560856
83476.7269869114
83461.2735055768
83485.8817135583
83486.7727894429
83488.2894020717
83487.1104628716
83485.804326149
83487.6968529505
83488.646160384
83486.0512233759
83490.0541433855
83490.9852866702
83490.5539049461
83490.3179945568
83494.1245266335
83494.4558790709
83501.0300741691
83500.1387924324
83506.9951980835
83507.5102838435
83515.9980012102
83515.0195666091
83519.8916018691
83520.6478380052
83532.0368954766
83531.2787842903
83539.504366408
83539.8831399884
83560.6623959988
83560.7723828694
83564.8018576517
83564.7784430592
83558.9049541945
83558.5820023691
83571.5418875068
83572.1053099371
83568.6004480812
83568.2964619371
83580.9885407224
83581.0939912425
83575.0771343997
83574.8653733632
83586.3017441822
83586.3108073916
83598.1697505003
83598.5366592837
83611.1502383164
83610.3675934552
83596.9426126472
83597.3347866395
83606.6000816155
83606.3253851994
83591.5022953473
83591.6943520814
83592.3127174269
83591.8122205535
83593.6499159003
83593.7338197877
83587.0148065763
83587.0533810467
83580.8629100684
83580.928074007
83575.2033057329
83575.1945553317
83570.3610570235
83570.4462357926
83566.5166190887
83566.4277146687
83562.7242832083
83562.7949333925
83559.7431511637
83559.457734688
83559.8568980591
83560.5269545073
83566.8416047221
83566.3037231385
83569.1664338493
83569.7586410882
83575.5862469688
83575.0774936106
83579.5900005838
83580.1395567959
83587.6123552355
83587.3298650392
83587.3351650245
83584.3360683685
83591.0973927187
83591.4023802017
83589.6485483598
83588.7075800472
83588.1058653793
83586.8227562091
83582.2840708816
83570.073770756
83556.5420596975
83532.3167059993
83522.2041076838
83494.3141121481
83463.4184905118
83449.5363795208
83428.1536489753
83421.9152623374
83413.8071999145
83413.952120931
83448.5246495047
83450.8723257673
83470.0333439599
83467.4457635829
83463.3041829239
83465.7099791354
83477.0564304696
83475.6650151255
83474.8850731292
83475.4394375235
83481.7664763067
83481.6638590089
83481.2213319007
83480.8215882835
83481.2895798689
83476.3745154255
83475.4894378892
83481.8770872009
83484.2178046456
83485.1894913738
83451.7373746449
83476.4978102345
83488.9048537249
83474.0169324178
83462.6200286687
83491.8148974106
83498.778946408
83483.8178183146
83521.073899063
83507.226072588
83504.8874173185
83506.522317217
83505.111423299
83505.7223316786
83476.6553224772
83494.0225919058
83494.8120923934
83483.5882620289
83528.8347961622
83523.0574128692
83514.9937729723
83514.4735316916
83508.6073577544
83509.3160120011
83513.3075992306
83512.4327362567
83523.315344806
83523.9130145597
83533.5502517996
83533.3218957079
83539.175269239
83539.3873303845
83548.4649186654
83548.066112575
83557.4997767101
83557.5667263745
83570.612809111
83570.829106347
83581.5782753781
83581.4856615367
83588.1607594506
83588.0950222165
83590.0185610941
83590.2883683593
83590.5128466394
83590.0078253115
83585.7567250647
83586.0476496034
83602.4605132892
83602.5797946834
83595.209170937
83595.0406776344
83609.8149420944
83610.4068190938
83626.0472046846
83624.9418163668
83639.8030197738
83640.3404878217
83622.5313091764
83622.1522341329
83623.1281448334
83623.5052704943
83626.2693716191
83626.2708344103
83616.7295193963
83616.6775842369
83608.743472309
83608.7327769438
83600.2443259643
83600.2403888775
83602.3308049327
83602.3456566569
83595.8784144517
83595.9180707142
83588.1205110485
83588.2709907547
83582.4390344391
83582.4235294785
83576.0320271769
83576.2343210749
83571.5904086708
83571.5167450234
83566.9993789518
83567.151628135
83563.6983268231
83563.734948013
83561.5501511318
83561.0601251224
83559.958002691
83560.4062318506
83554.8386491031
83554.6706770356
83554.8525189829
83554.8037161648
83550.0408762953
83550.3663372305
83550.9986193184
83550.6856293194
83546.4220363429
83547.218359459
83546.0749200691
83545.2340560046
83541.7447213881
83540.4774864156
83542.1040917788
83543.1499705949
83541.9391610406
83540.9389016208
83539.4110135168
83540.6612187026
83537.8336040115
83537.0023739106
83538.0156316607
83538.7105359287
83534.7431503163
83533.9642614957
83529.9413123433
83530.6890744481
83533.3392786033
83533.7328793281
83524.9677792863
83526.716817198
83517.6952452895
83509.0262812287
83525.4568573336
83524.1262754051
83528.7351612627
83522.1580838889
83506.5142567436
83491.1374287794
83490.4429351161
83490.6341531911
83499.8236042432
83498.6232662156
83486.6885664932
83486.8469968337
83494.8842051011
83494.3613676649
83499.4520337709
83499.8811781063
83499.4661755835
83496.0990215734
83489.201310672
83485.6084221662
83456.9658494179
83438.9451231072
83393.0656985355
83390.7659779834
83402.4052182205
83356.582250932
83353.8703033554
83331.7944626579
83327.9349989168
83324.2932978274
83329.006489977
83360.8714561723
83355.9163239194
83338.5440068684
83342.8388810278
83400.5331565561
83401.7268609356
83440.4404866342
83441.8185777442
83432.9960175173
83431.0542891625
83466.700314351
83465.0387924397
83470.5288819543
83469.9513306036
83487.1638876045
83475.0850324924
83476.0166438107
83477.2287823923
83487.7285443082
83479.9362147902
83482.8212383065
83483.8623903491
83466.9882658405
83481.0054894521
83487.3988041164
83481.939862627
83526.4625214704
83496.5249928348
83500.4274307049
83493.201206119
83532.5244033641
83517.2796999276
83523.7289675383
83550.3243430305
83544.4902762396
83520.0723354207
83512.6458073794
83524.7538342053
83516.2291770695
83516.017341991
83512.1724812789
83511.728286894
83505.9135129664
83506.7157312151
83506.494653358
83505.132517475
83507.5878231679
83504.2277226938
83500.1543315599
83501.8243782319
83503.4672049183
83503.678515438
83502.7994704983
83502.4485516553
83503.4147606546
83504.2848724562
83506.7508361027
83505.6624900052
83507.7598789315
83508.5550683471
83518.5376279662
83517.9577122613
83525.5921645723
83526.0969948117
83528.9365617002
83528.7247500321
83538.5339571775
83538.6870469309
83548.6956272571
83548.6920733973
83558.9009438934
83558.600294181
83569.3572698833
83569.9756580827
83585.5425306253
83584.9506119275
83599.6106690301
83599.9343848573
83607.9131366588
83607.8101438436
83610.7858874003
83610.7595253729
83609.3832066137
83609.4710985022
83628.6491808805
83629.9102335314
83620.6514140897
83619.6745713667
83637.7009470854
83639.4691729851
83656.7209090194
83655.6820355822
83660.1366391052
83660.7080927248
83665.4024147626
83665.4078793849
83654.4111301389
83654.3462107204
83645.3054764319
83645.2826218338
83634.52393612
83634.3898300234
83637.1077959323
83636.9493783939
83629.0377991563
83629.2951768913
83618.7084606488
83618.648337904
83611.2727034448
83611.3785598508
83611.7585352327
83611.6195075061
83603.2236146102
83603.1759699457
83596.6054624135
83596.616580431
83589.343850726
83589.2287072498
83583.3602395221
83583.3893842383
83577.300084704
83577.135512342
83572.237226635
83572.3522099562
83567.7078515646
83567.5189610244
83563.694425067
83563.5108939345
83563.7686723488
83563.8358019865
83561.0442605827
83560.682746152
83559.9826954575
83560.1285907286
83560.8511579773
83560.5677668068
83559.7685374694
83559.8467234857
83554.973571902
83554.987788362
83553.947384191
83554.0133604079
83549.6719428886
83550.01184337
83548.578972115
83548.2864180714
83543.9152768836
83544.7013176693
83543.2205890823
83542.4607205141
83539.4852723941
83538.4618555031
83539.7979365254
83540.6829092849
83538.684516393
83537.4618177524
83536.6059753806
83537.8872191361
83534.9467898766
83535.7368785145
83534.4452326118
83533.5994848359
83531.2785097766
83531.5419351071
83534.730652447
83534.5123107201
83536.3984992946
83536.8477621108
83533.1697289603
83533.2257095431
83531.6371421893
83530.8732384237
83531.0396590675
83530.6083800498
83525.3387701764
83525.7382259575
83525.3935503893
83524.2393036799
83518.2024530665
83520.572655993
83506.6004227491
83495.5421289709
83488.4945128394
83494.2451908667
83479.540034076
83478.6419325103
83462.3357738527
83462.7129338633
83476.4210402964
83476.7453713116
83474.0926745346
83467.720402514
83453.6726237232
83445.7518058034
83440.3296241346
83411.0359163554
83390.0541513085
83358.3180114093
83308.3789028789
83318.3072171333
83326.0489173557
83321.3989562282
83312.1189113742
83301.6832243377
83303.1719374351
83287.7310989568
83292.0886383771
83312.5562392104
83314.8141321048
83348.2862700882
83341.7941266139
83380.4249891707
83374.9432510589
83382.7027375956
83388.8060871974
83386.2040763107
83382.8928263317
83417.1319745872
83415.9617626815
83435.2292499705
83431.3812605243
83461.3199048071
83458.4458483189
83458.106466698
83460.1202131447
83465.5761754267
83461.6599778894
83463.0349598466
83464.9407659153
83485.0688147927
83479.8097462676
83488.4048774732
83498.9365740921
83492.3543309523
83485.4795934661
83487.3775745771
83489.8850223466
83487.3045284324
83490.7504620595
83494.7669686148
83490.9437608911
83513.6799043854
83505.3304223888
83513.7960911087
83531.8955623824
83507.8557751912
83504.8080047327
83500.2578554885
83509.547778104
83502.1036047102
83497.6751844889
83490.2532121094
83488.1335673679
83495.0625288332
83494.3010828675
83497.5202684473
83498.401356146
83497.9070222313
83497.3768111863
83489.8488080994
83490.9183923144
83493.2245950393
83492.0575478364
83499.0656830124
83499.9964253296
83508.101993051
83507.5977684552
83518.3794995455
83518.9541615022
83531.7566475396
83531.6206848337
83544.7741069644
83544.786710689
83551.282757675
83551.4151470302
83557.5219080329
83557.0629761917
83580.4116270694
83581.544516581
83601.5100459329
83600.0207425941
83618.1516694718
83619.8658995156
83629.5963995214
83627.8882129642
83631.2184436134
83632.7384119261
83655.5167375031
83652.6884307736
83648.722206891
83651.0600973043
83670.5808722283
83668.9936490449
83675.2195927802
83675.9729094145
83681.5988895247
83681.5224451159
83672.3167972083
83672.2328929811
83674.6759436315
83673.880954647
83668.1308499907
83668.9408292035
83656.7514430909
83656.3771850086
83648.4182020508
83648.8816541208
83648.1151686868
83647.4224354444
83636.710122375
83637.1222407696
83629.1561366128
83628.7916619938
83619.091290326
83619.2396490482
83617.3289097547
83617.1379742489
83609.9908215512
83610.1931637725
83602.4743095384
83602.4559088289
83596.0125074587
83596.0695606778
83589.4059201103
83589.4160483997
83583.5005404515
83583.5443599458
83577.734363435
83577.7708844438
83572.6074254979
83572.5817279569
83567.7258557985
83567.940922361
83567.8890433279
83567.7209040936
83563.7123818058
83563.575607687
83563.6011804961
83563.6239898898
83563.2053345864
83563.0992142751
83562.7899691749
83562.7943387781
83560.1869888343
83559.8978323584
83558.7784088777
83558.8305401666
83558.864820475
83558.5679296681
83557.3173357633
83557.3617814597
83552.6506241269
83552.5139672026
83550.856430394
83550.9928361744
83546.7346904259
83547.0346781991
83545.0393017106
83544.7785043191
83540.4757470179
83541.1855069229
83538.3754015776
83537.7174621209
83533.9750922919
83534.5968645828
83531.8192561766
83531.0018995823
83529.5387306351
83530.4744292342
83527.479878192
83527.0120064258
83522.9943784617
83522.8095994947
83519.399244544
83519.6745751191
83523.5142521409
83523.4462578297
83527.5322176251
83528.002679019
83522.796834409
83521.7190654604
83525.7697620051
83528.5633281976
83524.9520114329
83521.0693235149
83516.3562109886
83517.6980655766
83540.3343612055
83526.8435391636
83520.6252129517
83511.1497626872
83532.2691584705
83524.6382763692
83521.3070709261
83515.4353777086
83520.4962085901
83528.2940296679
83516.1388630988
83517.2375576557
83509.7354221211
83518.5874017766
83506.4252751501
83500.4316527098
83486.0623343215
83484.796327511
83483.2339656903
83479.325370742
83466.0320396895
83462.8783552259
83446.4900027497
83447.2191991143
83435.9016837519
83436.1031359638
83450.5162157519
83451.7870814384
83436.6625828464
83432.0882416213
83433.0895480341
83427.0638119554
83406.9081740084
83410.9123910131
83406.0311361856
83400.3495332389
83368.9582130662
83367.2567009171
83346.2080968941
83345.8683229031
83332.8396813089
83328.3590597955
83303.190011565
83309.8905158118
83308.2657929608
83307.0579996355
83325.2535949754
83302.6677591221
83295.0708637416
83307.8889907736
83324.2380971724
83309.7901284853
83300.7113705672
83310.8249724855
83301.7503232103
83293.3147508226
83288.5503714631
83299.9931407275
83291.4151475278
83281.4411310836
83272.9491576295
83279.0705182403
83291.6503528735
83285.9220194353
83312.6094155964
83322.2183697735
83320.6875939118
83329.7937027091
83326.8278243756
83317.0585023924
83315.9214569948
83316.8142923297
83353.8619279726
83354.0929373126
83347.4551814211
83347.772174207
83341.2252219898
83340.9422328814
83334.3402706349
83334.3877278857
83380.3750177458
83379.4379739428
83414.7140483331
83415.8553393702
83442.2280777292
83441.9399471687
83444.9074355736
83445.1791743265
83452.9949438628
83453.5024038318
83459.7763629048
83459.8225526224
83468.2512987087
83469.1288924681
83474.1385127388
83473.5921445894
83482.3460739493
83485.1772589988
83484.1154584373
83485.620306154
83488.5639193556
83487.267216655
83478.2464027491
83479.9376686094
83483.9623825353
83485.4633955483
83482.454984154
83481.0305656499
83468.0084609181
83469.7953993094
83473.3742193254
83471.6218539908
83481.955201701
83483.075788209
83496.7907845349
83496.0694715915
83513.9051320747
83514.175120575
83535.204423742
83535.3117880941
83533.054171257
83532.7775766955
83560.2782653995
83561.0347235427
83591.425416425
83590.0229282444
83614.7172468753
83616.723785551
83639.7039003407
83637.0129955756
83649.1139346894
83652.0665621723
83672.4657304347
83670.2379444545
83674.485946948
83676.5215698789
83686.1519291288
83685.2952591612
83689.8797478426
83690.2798968498
83686.0787228855
83685.8587499314
83684.904614734
83686.4317475115
83684.3884940959
83683.0183221093
83676.8896326217
83678.7875307304
83671.9009280221
83670.4745313594
83665.7359484079
83666.8868523899
83656.0905063524
83655.2569415638
83649.4755910629
83650.2506971895
83642.9368796864
83642.2894473869
83633.0239774572
83633.4351186689
83625.9307452919
83625.5814292739
83620.2020539068
83620.5671573305
83613.4476037866
83613.2069163645
83607.0027075217
83607.2189396635
83600.568143083
83600.4629827657
83594.5640283075
83594.6572732624
83588.6136805489
83588.5873015854
83582.9524943482
83582.9924335739
83577.5929600917
83577.6052528911
83572.5356248952
83572.5079927198
83572.0844435919
83572.1367777846
83567.6495636166
83567.4562103308
83567.0061512207
83567.14392732
83566.4928423093
83566.3282299037
83565.4862466193
83565.5784196451
83561.9618681867
83562.0465655987
83561.3369452302
83561.3297872772
83560.2990089704
83560.3880209559
83559.5055393208
83559.4938729605
83556.8943122561
83557.1663478711
83555.598069137
83555.562682196
83555.0264020633
83555.3099076248
83553.7204827317
83553.6501173287
83548.9468731322
83549.2254071317
83546.7537671422
83546.3695055007
83542.3025531684
83542.0413766684
83538.3003790427
83538.5218345381
83533.3793947175
83533.2589280481
83528.9795028677
83529.5766119605
83526.7473575966
83525.8968844004
83524.2813995917
83525.3714495546
83522.318487559
83521.4684964644
83517.171112901
83517.314634807
83513.7228434406
83514.2945078478
83512.6251558122
83508.806719924
83514.3169453255
83514.9633566181
83518.1998895607
83517.8677640791
83511.5538840858
83511.6152962215
83506.2280886608
83506.3887941605
83509.2751920374
83508.5471240564
83501.4707187076
83501.8855369248
83508.6866918828
83509.4102251937
83503.9299095767
83502.3004135146
83510.4176602871
83515.4928089911
83503.6726748604
83499.8725322665
83493.1739458863
83498.9420485422
83489.9098567361
83486.766044601
83478.5733644221
83489.2053155108
83466.4404768958
83468.1709538777
83452.3550758705
83455.6062894289
83431.054419766
83429.1841901189
83414.6246948508
83416.2697322225
83399.3575885189
83396.5894562772
83420.6244117295
83423.0930154049
83415.5645281675
83402.3421891352
83372.8192425797
83379.1671195637
83380.9122670372
83356.7328180569
83354.5811866984
83330.7928881993
83334.0342831763
83323.9722557291
83323.2784131228
83305.9521613888
83302.5699426448
83307.3836547292
83301.1607945577
83297.7578345407
83306.1406511609
83288.2265473887
83284.5940395056
83278.8289097588
83280.5015511264
83281.740588815
83276.7727964725
83285.9395249276
83291.8197518595
83286.1667143109
83280.4373278271
83277.2433017806
83283.6489208864
83278.5788475683
83272.3211224265
83265.3901778767
83266.5736781718
83261.4863328499
83261.6974087211
83256.8561369711
83256.7152191879
83262.7995746282
83260.2603136362
83264.1701655804
83265.43139007
83267.598012647
83259.8333712246
83255.4635650008
83251.9987209457
83286.7754642272
83283.3033963601
83270.0637278869
83272.3905904213
83253.2138852892
83248.7180206439
83228.4276503263
83232.9607183258
83283.8345405897
83280.4754036927
83265.8501038928
83268.7232214177
83250.6491379083
83245.0704707091
83221.1798220745
83230.9514903432
83210.6692284519
83199.517089891
83181.2721587675
83189.0435383189
83216.7216768571
83210.7848896668
83207.8842232119
83209.8357062907
83207.5513632078
83206.3298279203
83206.5629972787
83207.3273300661
83208.0370135361
83207.3477375256
83279.135671628
83280.6275150366
83281.464072574
83280.0868555507
83283.4006563749
83283.7761120923
83308.9337736339
83309.9215767087
83315.832794967
83315.2909521321
83325.1725982717
83325.3078844669
83338.426883024
83338.1633497041
83355.2792785291
83355.5999070231
83377.0506668996
83376.1674395976
83399.1733172706
83400.3431051936
83425.8065283982
83424.2406295193
83447.601145971
83449.311485074
83472.0671625169
83470.0756606322
83488.0376509481
83490.0544374971
83506.2365976433
83504.2105712466
83515.8369584653
83517.6289134209
83528.7614699935
83527.2733890652
83535.4091852943
83536.3936963776
83547.4984411319
83547.085094728
83560.2965571436
83560.2815235756
83578.9462266348
83578.9538722604
83603.5867867687
83604.0604640796
83626.2376117368
83625.2015400827
83642.2762730273
83643.4374050422
83647.3170856081
83646.2300308578
83645.7217559016
83646.6026492703
83640.16428894
83639.4334299022
83633.8183651674
83634.4352592623