/*--------------------------------*- C++ -*----------------------------------*\
| =========                 |                                                 |
| \\      /  F ield         | OpenFOAM: The Open Source CFD Toolbox           |
|  \\    /   O peration     | Version:  2312                                  |
|   \\  /    A nd           | Website:  www.openfoam.com                      |
|    \\/     M anipulation  |                                                 |
\*---------------------------------------------------------------------------*/
FoamFile
{
    version     2.0;
    format      ascii;
    arch        "LSB;label=32;scalar=64";
    class       volScalarField;
    location    "1200";
    object      k;
}
// * * * * * * * * * * * * * * * * * * * * * * * * * * * * * * * * * * * * * //

dimensions      [0 2 -2 0 0 0 0];

internalField   nonuniform List<scalar> 
162506
(
0.01508743830014
0.015091418067298
0.0162984834652438
0.0164061576442206
0.0167317961503001
0.0165728457525279
0.0151721383870853
0.0151278936076695
0.0164311371220479
0.0158106849906474
0.0153535826301998
0.0150314499926549
0.0150685530672579
0.0150490508829383
0.0150132783140819
0.0150111126822792
0.0153245830230863
0.0157351452173135
0.0150448997789136
0.0150920088086978
0.015056120558712
0.0153412033502976
0.0157499524992857
0.0158004576455806
0.0153758461665839
0.0153291032450721
0.0158118068375821
0.0150103026349041
0.0157516775969532
0.0153092747483295
0.0150027628973615
0.0150029867005871
0.0150132929750601
0.0150007567339745
0.0149985325726865
0.0149980728562858
0.0153027721179285
0.0157509026886221
0.0150006768179599
0.0150757613233143
0.0162854801864718
0.0162868553553046
0.0150717907860103
0.0151160592725081
0.016942191752282
0.0169512052903151
0.0151187319059485
0.0152570863174444
0.0173879864710181
0.0177210758906386
0.0171052297066744
0.0178912115902456
0.0188732815953624
0.0183098427589268
0.0153536688024408
0.0153030201885095
0.0179965974519696
0.0171592096977322
0.0152291547072174
0.0153346209234777
0.0172187162103623
0.0164794368115278
0.0151769324413593
0.0150524437520485
0.015016365025121
0.0153484057767046
0.015868189402677
0.0158296423857404
0.0153008631773766
0.0150080526763637
0.0150285245690827
0.0150161666441004
0.0150051476001686
0.0150106212594199
0.0150288335525215
0.0150320625867736
0.0150755666357084
0.0150740620908003
0.0151496124835225
0.0164186907132987
0.0164364999161782
0.0150885546467079
0.0150133184055926
0.0150029099002086
0.015298122567936
0.0158259488453095
0.0159353882146859
0.0153536403353114
0.0150018578535198
0.0150105534779769
0.0150023465751764
0.0150017028747723
0.0150002018753785
0.0150016845481059
0.0150056198381035
0.0150010574557918
0.0149989927819108
0.0149990697083524
0.0149995976449545
0.0149992871832587
0.0149990338797742
0.0150012860310901
0.0150010934392523
0.0157505482255526
0.0153026016377381
0.0149986581315634
0.0150033830450546
0.0153088191387933
0.0157507506680357
0.0150109399059586
0.0150707139095753
0.0162848841692551
0.0162846432548256
0.0150740093090088
0.0151145564210674
0.016949102717614
0.0169507426931082
0.0151214103143701
0.0151609792214558
0.017742704774635
0.0177086230134915
0.015160972065621
0.0151559779834169
0.0176894517630385
0.0185155097686139
0.0154778470369425
0.0157733462851109
0.019327128497631
0.0201357494803458
0.018740488035821
0.0197544335456771
0.0212819237064185
0.0206036771666859
0.0166404412812827
0.0160703273902278
0.020173179478544
0.0189447446816007
0.0155807513409679
0.01545950863619
0.0192316935313463
0.0181480275216688
0.0153564372972701
0.0153191038834803
0.0180739314774034
0.0171542755467673
0.0152749571747949
0.0151438236596302
0.0171857339137572
0.0174783205909936
0.0153348853398842
0.0151510237203694
0.0166207400944256
0.0166981199943612
0.0151203413636406
0.015008061184197
0.0150015651245022
0.0153820114994381
0.0159814349997169
0.0159210454117921
0.0153476059763418
0.0149991340495771
0.0150044514283423
0.0149999923986115
0.0149998035350467
0.0149990192733769
0.0149973538785089
0.0149981379208687
0.0149992997068766
0.0150004426377106
0.0150013930032781
0.0150060240312264
0.0150015115684062
0.0150035953018182
0.015014027262161
0.0150497372525162
0.0150141284366177
0.0150119433154552
0.015323817485482
0.0157333458302277
0.0150455778974419
0.0150882385083766
0.0162948722336553
0.0169447246814794
0.0151167601800604
0.0151124739221801
0.0169381688632695
0.0177001626242529
0.0151561126319249
0.0151529452310327
0.0177391651416015
0.0186637969022075
0.0153745922434985
0.0153853027519061
0.0186716592385923
0.0185900400000886
0.0154163457300518
0.0160095626510708
0.0197382707484739
0.0195753740204224
0.0160848047479174
0.0162791741779095
0.0199770306453357
0.0209295771213235
0.0172501738655171
0.0174642340063673
0.0213908030786117
0.021529982379208
0.0172733295627417
0.0165756038382746
0.0205513165836951
0.0214114863331536
0.0167620806502348
0.0173598112948846
0.0228682225614237
0.0248019131113801
0.017985747533594
0.0186079023642327
0.0246888367162504
0.0251686858490333
0.0290169863344913
0.0266327418150655
0.0192638761299816
0.019059341397827
0.0264463986424852
0.0258197100845553
0.0188987800767856
0.0186103074360101
0.0233789146516528
0.0263197786090394
0.0251222916216854
0.0234563386800038
0.0178163172175738
0.0218782751529172
0.0241517285248471
0.022817714756648
0.0208574123545635
0.0173613886292632
0.0224802358662507
0.0223282502823715
0.0170299005763726
0.016241609889994
0.0220603873646956
0.020533842722637
0.0157262302838237
0.0154751708935146
0.0204120713030963
0.0191503067817846
0.0153653057596942
0.0152162541408251
0.0191479069529929
0.0180896402019329
0.0151791239085246
0.0154001396995528
0.0185889693843591
0.0186843054009318
0.015414910421939
0.0153323222217093
0.0175659465167686
0.0173564395880549
0.0151140835239577
0.0150459171650185
0.0165890938964734
0.0165844094445826
0.0150512523188932
0.0150065866568589
0.0159179874512363
0.0153470335819735
0.0150000941235235
0.0150001576881473
0.0150015704110802
0.01500656241078
0.0150010105327063
0.0150022384820263
0.0150047765881564
0.0159757600829389
0.0153804536051081
0.0153517582950338
0.0150004188237137
0.0150096504137756
0.0159306627934435
0.0166115378181904
0.0151527091754253
0.015089037438105
0.016427897166257
0.0164136157552992
0.0151510017619398
0.0150280519609195
0.0150086078143247
0.0152998121280242
0.0158276028510274
0.0158213279311027
0.0152968923368113
0.015003369698043
0.0150136343947363
0.0158641267396041
0.0150517618185867
0.0150157868558709
0.0153471398119445
0.0153527039844953
0.0150309246497195
0.0150675199450333
0.0157898278039076
0.0164049935030696
0.0151417077924289
0.0152427101726819
0.016432369301254
0.016631891318017
0.0164490100792201
0.0157543626348844
0.0153310145079781
0.0150325459190599
0.0150695413209868
0.0157621256391106
0.0153310696226902
0.0153751731150315
0.0157680018347266
0.0172587872673628
0.0176110770007235
0.0171293885588303
0.0153430266016692
0.0152483004547802
0.0171287197145474
0.0179579929182201
0.0153268999562326
0.0154393769925267
0.0179093236735249
0.0187463976581636
0.0181667090581491
0.0192067972924783
0.0199514320835703
0.0187478905702794
0.0159051947970956
0.01549426027772
0.0184965232865758
0.0185731591061893
0.0154064488430018
0.0159948120689092
0.0196867501708199
0.01984261481909
0.0159388742133086
0.0159496243879999
0.0198637923630907
0.0217735354452749
0.0168018373344875
0.0174224260892074
0.0232503611199372
0.0255984453721675
0.0178681899877621
0.0177951264532465
0.0249948490590147
0.0277448577693537
0.0192016303269865
0.0193824852183997
0.0272001954139039
0.0265266680886759
0.0195650149615449
0.0193422736378878
0.0284007648562137
0.0325048614660095
0.0274060818227835
0.0297488639783812
0.0357770064207753
0.030354825291496
0.0198054616715774
0.0193351277820306
0.0298745558992519
0.0279416989452083
0.0192182724139358
0.0190446605795057
0.0267172281603449
0.025363617778688
0.0185726478646689
0.0180212112723528
0.0236290521207104
0.0232633345316538
0.0173841275848099
0.0172257584500472
0.0244848607434127
0.0239529841501217
0.0168208457918097
0.0158353611529481
0.0219187415756196
0.0218219222762825
0.0155143787223552
0.0152822231255284
0.020379015673287
0.0215500790221825
0.0155261160895716
0.0154627547498226
0.0199338621300602
0.0200328392705351
0.0154888675656441
0.015222109510324
0.0193160346701094
0.0182610221733442
0.0151697883291193
0.0151752825668767
0.0182537688103448
0.0173510514077362
0.015119511659627
0.0153352797624154
0.0175537196749784
0.0166888425015519
0.0151252781259307
0.0150475512882558
0.0150072241741196
0.0150113885449971
0.0150051956534908
0.0150040786472299
0.0150039361463965
0.0150020943643201
0.0150443709692267
0.0150230534130649
0.0150544964235099
0.0153358137077364
0.0174643466293921
0.0171728951702895
0.0151410988598364
0.0152759588724267
0.0171447703134173
0.0172068348823719
0.0153372623974796
0.0153622043168208
0.0181292470981881
0.0192001095306994
0.0154765895673947
0.0156204600957434
0.0189001061268072
0.0201119987298992
0.0161503591163091
0.0167159980307608
0.0197598079179643
0.0210513190894152
0.020436230524224
0.0222383682641912
0.0225476011258703
0.0208759182336663
0.0174712109271191
0.0173139035648612
0.0208576571620037
0.0199129130489717
0.0162678117082775
0.0165699233290818
0.0204830457557084
0.0213622643964459
0.01738561055413
0.0175366245576171
0.0212831356602474
0.021842550244586
0.0178843471331307
0.0233642385711578
0.0238260922737902
0.025961718470994
0.0233869442104285
0.0188735817670598
0.024982582047257
0.0259601734505704
0.0193759916717042
0.0197053079951803
0.0266004029626036
0.0262509499164406
0.0277919150422588
0.0250352634456981
0.0199078788406
0.0191453971537054
0.0244450853836571
0.0246513847858372
0.0184989911294821
0.018074814537595
0.0248511228538911
0.0255004564306903
0.0179942546978564
0.0178873280182268
0.0256343220654202
0.0257125828479391
0.0178796948945152
0.0194851652588415
0.0287972444911625
0.0285716354038156
0.0194429368000721
0.0207609869862001
0.0306557179751866
0.0297618576435076
0.020468932521157
0.0203391744282201
0.0296186264986582
0.0288373235684263
0.0203686765274603
0.0199482168379256
0.0284542759410738
0.0294749680464162
0.0204635408936372
0.0211950157392344
0.0333761737134491
0.0325846139426737
0.039762623037424
0.0323804239968705
0.0201642964804298
0.0194863170106175
0.0318902233029247
0.031218291346972
0.019293589274015
0.0189950403833108
0.029460400038177
0.0273258489414346
0.0188777269741568
0.0179838974949085
0.0261948412044613
0.0248832121529009
0.017679309838125
0.0168146334664658
0.0160755418180488
0.0154545907538752
0.0155063931487941
0.0157025638216819
0.0164472066774849
0.0240438096744048
0.025618551507692
0.016536885899737
0.016486741708559
0.0252939496415147
0.0248925212068839
0.0166458582033334
0.0166027222676774
0.0246070151807245
0.0252965834294659
0.017513879755488
0.0174567060785949
0.0255174575629649
0.0259255427894773
0.017475790986325
0.0180519012546298
0.0264803811972655
0.026011627526702
0.0181220550825044
0.0173173701186555
0.0246176901075946
0.0167210378234691
0.0185780686698731
0.0276979454773665
0.0295079969781043
0.0195213475406654
0.0190338604060435
0.0285415806747196
0.0273942739864845
0.0177884974166699
0.0167502673554003
0.0282875511619674
0.0307794357429297
0.0163269107868683
0.0162197479519377
0.028116749757321
0.0256235596970322
0.0160800040540696
0.0156151367437937
0.0234648172917192
0.0235578063174999
0.0156432685767272
0.0155555771776068
0.0216481047617107
0.0205351964739497
0.0152732258806746
0.0152784648945124
0.020519600414211
0.0193056356897116
0.0152277480384671
0.0154878060224355
0.019997535845986
0.0186644820371478
0.0154168596286672
0.0153956745358442
0.0185668876562866
0.0180698107188905
0.0151682880017298
0.0153179626279562
0.018056458255092
0.0191197225269461
0.0153593020470048
0.0154569777845654
0.0203616689201965
0.0204823955382029
0.0158014572306463
0.0163480726990244
0.0220343123084935
0.0222552388579666
0.0171528196205233
0.0181996971555911
0.0236994753360182
0.0251536747903607
0.0190977714720821
0.0196244426951731
0.0275206737083812
0.0282754564537033
0.0199961353462689
0.0198438782587236
0.0271624283743903
0.0282944574290268
0.0208003067560122
0.020830660338522
0.028929526001274
0.0291536122051614
0.0202658898241929
0.0207800446831598
0.0308083659834913
0.0320604554325773
0.0371267422313846
0.0323589939785236
0.0225349245417053
0.0228269992497554
0.0320682280385372
0.0307447479559563
0.0223626763415922
0.0213941204858972
0.0291863114094685
0.0332557977316078
0.0296506750063486
0.0282650474312784
0.0308632132494987
0.0274104063932893
0.0213041183133475
0.0208223171637697
0.0272707605965435
0.027326557234488
0.0200892397854926
0.0195526286437496
0.0277482664289655
0.0285465578556772
0.0195768851267339
0.0194989543881574
0.0287407680078881
0.0309650422814078
0.0209333814600551
0.0209624376741379
0.0310379025499887
0.0309644893064664
0.0208576365101163
0.0208554065272882
0.0307302768456066
0.0339658176418286
0.0228340859461064
0.0226945166141545
0.0338455215836035
0.0328950548631908
0.0223016660770398
0.0220337361591564
0.0325178094445406
0.0313463532190805
0.0214772243701778
0.0205905696533939
0.030485070322846
0.032556380789882
0.0211745653030319
0.0214193869112478
0.0352176125783071
0.0380334846822537
0.0216601565038755
0.0215240468468281
0.0383270815797111
0.0356878231232371
0.0438681581694534
0.0344401630321623
0.0204828279252217
0.0196440974999451
0.0340496654956677
0.033849901589002
0.0194457253273719
0.0190916181990393
0.0317737561902286
0.0301322837287202
0.0184917460172772
0.0182068700369928
0.028104508953798
0.0171912562354443
0.0164980155951935
0.0162089269130039
0.016299799643657
0.0157435250043632
0.015668751054859
0.015602824027185
0.0155606123653497
0.0153306401411593
0.0152787636528015
0.0155796155421108
0.0250897068100605
0.0234639875984968
0.0154393265254663
0.015337530209144
0.021927395948926
0.0219030745104549
0.0153350746133143
0.015623859310411
0.023445964973925
0.0215816818068285
0.0155560906509303
0.015493582975738
0.021479386645262
0.0203315704053036
0.0152520744467332
0.0155951219523084
0.0217356292771054
0.0218274600023768
0.0159745928831416
0.0170583613334085
0.0240196872853643
0.0245796292221083
0.0176643548346966
0.0174956411418675
0.023219633926898
0.0250054284827067
0.0179216935700743
0.018767242026405
0.0257189010868084
0.028388846379428
0.0189356946261854
0.0200882270564323
0.0311464545429674
0.0320968963968588
0.0206814775589836
0.0228925795360211
0.0349044017928114
0.0399957891963035
0.033474518083885
0.035328997535816
0.0444300609399933
0.0387626671463823
0.0232286577597732
0.0240055050447083
0.0387739064332287
0.0359855758936167
0.0247583942333292
0.0245315987925257
0.0357364594497025
0.0371857228136109
0.0247767185300919
0.0255301599644064
0.0378644830841873
0.0380495800996772
0.0252066198882457
0.0254499950542869
0.0384532085760488
0.040076222274609
0.0257834661801243
0.0257913782210964
0.0403101010735874
0.0409338873569111
0.0258395053018698
0.0258243971024277
0.0408643684478425
0.0406236086495763
0.0258221909948801
0.0256606987141956
0.0402713058981633
0.0395153015917317
0.0254681719491522
0.0251899586616393
0.0391898357401679
0.0385844180892516
0.024906356874973
0.0237743463666466
0.0375410635614029
0.0347200245487217
0.0223599699054724
0.0227076026233398
0.0390256011978255
0.0439789405172936
0.0230637529639959
0.0234924945301233
0.0506259514172164
0.0411890168862189
0.021839668822401
0.0221182233918879
0.0451497328125507
0.0443621455847732
0.0218390354682389
0.0207964284339359
0.0367269028266883
0.0487818655578021
0.0393397324960009
0.043113492155283
0.0537897520959153
0.0395157994146664
0.0211010317639832
0.0200980550754221
0.0390733745237877
0.0364304609552081
0.0197920826154698
0.0196483934413237
0.0367482410591495
0.0343384614084842
0.0192154148277216
0.0186244739180093
0.032440044933543
0.0317551209760525
0.0192400404038509
0.0190258778711953
0.0294915844011151
0.0171753309295302
0.0174011518537557
0.0168661117873817
0.0157772377184352
0.0158367096181982
0.015646389154386
0.0160434170033751
0.0309699346530046
0.0282546346131173
0.0158910373011266
0.0157691859489826
0.0257857883930888
0.0153871092878454
0.0151976547015067
0.0151919509947686
0.0154380738947697
0.0233957236974699
0.0255821340691484
0.0157144357020758
0.015697289007236
0.0255071889361886
0.0234123660708381
0.0159670558959372
0.0164558853992333
0.025927398425097
0.0251553829949308
0.01727114194731
0.0178680782895779
0.0256115462172107
0.0261989386386579
0.0185438731111633
0.0181113850747146
0.0262498512217483
0.0269925099317863
0.0182037554645689
0.0184363657093677
0.0291536687300402
0.0310290643325912
0.0191843987012435
0.0204274122459142
0.03487931987347
0.0332487416738634
0.0208237435846225
0.0209600573561282
0.0354524642112322
0.0375531157175083
0.0484514684547517
0.0426673132121101
0.0235214133577932
0.0243902211196991
0.0436389336600614
0.0412226926668643
0.0259723698736434
0.0266323059246903
0.04170656974403
0.0449854452544115
0.0267281533929847
0.0267397899284356
0.0462881659704847
0.0466991250646377
0.026870691197631
0.0273779493854584
0.0487459300588365
0.0493054638134154
0.0271601028381457
0.0274749991557211
0.0506406994055207
0.0511921244024387
0.027617431268411
0.0280099671868354
0.0527515223031046
0.0545378693201125
0.0281916537960487
0.0282387992146587
0.0552515809075279
0.0553568772951129
0.0280877782787769
0.0283716094922406
0.0559005278728782
0.0570381641216127
0.0283721853926197
0.0282839088106851
0.0570845452618233
0.0570195777775639
0.0283424685553979
0.0283488970520753
0.0567047747929518
0.0562807849582035
0.0284721322303987
0.0281881456852216
0.055484863396215
0.0553141481845188
0.0282087234511102
0.0280645665529119
0.054239076250925
0.0532822761483906
0.0280101122158759
0.0276490971999762
0.0518302973841073
0.0512971850126602
0.0274728879570019
0.0271015977207456
0.0499670533359215
0.0491086198200912
0.0269057723042855
0.0262897413629374
0.0473281057114011
0.0471899950549193
0.026093369701805
0.0259774555794758
0.0417880565075446
0.0432806104852157
0.0265941248907854
0.0267562894533817
0.0436436778389419
0.0442589665790334
0.0271024495519902
0.027194184465914
0.0442699225651102
0.0450863159096624
0.0275598701934731
0.0275825769502103
0.045580553497589
0.046248927284892
0.0277765597782753
0.0277205571502176
0.0462775974718587
0.0467551868213474
0.0279582885793391
0.0278555748382573
0.0469103142194308
0.0471638516985782
0.0278725205293447
0.0278397701477163
0.0471541386929196
0.0470931487784041
0.027877799051083
0.0278426430817338
0.0463602725430956
0.0460505907599914
0.0276517689892411
0.0278114634462728
0.046037037085274
0.0455250745472541
0.027707041161763
0.0274929211639495
0.0440532690582948
0.0431858637343255
0.0271218233524551
0.0270590480048029
0.0430088735996061
0.0423877539050335
0.0267620138664032
0.0270874089131015
0.0422943616017828
0.0409180972399755
0.0265844387007707
0.0268262818740485
0.0228658660175966
0.020483027585317
0.01791375721409
0.0173706607914835
0.0166261271941854
0.0164762237802847
0.0159052341541616
0.0157882613111197
0.0157547541155579
0.0154965257086728
0.0154184928769116
0.0158621324885222
0.0279425581977125
0.0281004508088631
0.015950027055273
0.0161467784624652
0.0309566090303387
0.028663240157407
0.0167893295425141
0.0173485866454829
0.0284469981119166
0.0268333011630035
0.0171998263836731
0.0182357008698513
0.0278494169024785
0.0285534191480491
0.0189507527399428
0.0184207060034585
0.0283361302613665
0.0305934332817819
0.0186093871219521
0.0186832569103031
0.0313473935917281
0.0338767437405594
0.0195248628753091
0.0210710058868987
0.0392680648914071
0.0374827235590728
0.0214943771150385
0.0246657510522845
0.0403054230096365
0.0534845827844388
0.0468967021326855
0.0496493471518779
0.0248362290306623
0.0264239942012629
0.0481644091912477
0.0523025511592379
0.0271212531257406
0.0281838877341039
0.05569075321016
0.0583925776726478
0.0282774212929758
0.0282626543050537
0.0620106130326058
0.0630294406255235
0.0275906768383057
0.0282388091044833
0.0656802005016152
0.0667801455791118
0.0283235929141427
0.0288058833130604
0.0692565102460549
0.0707449003592945
0.029260362925444
0.0297796040275365
0.0729026978898687
0.0744231594800967
0.030074347335171
0.0302741236031338
0.0747830939717331
0.0750347792302252
0.0303502223004139
0.0308185695514281
0.0760586918583432
0.0779101787712973
0.0307849548273717
0.0307001585330386
0.0777656880170716
0.0775209602679523
0.0307963082029783
0.0307012771345417
0.0772675923828047
0.0765502013364161
0.0307669331379482
0.0303578544598526
0.0755662412098457
0.0754330508972736
0.0300952110718285
0.0297840716309224
0.0746114444031136
0.0733312080002416
0.029518421884289
0.0290761578280982
0.0711276989880245
0.0690066739359928
0.0286276915388363
0.0280816470372255
0.0664983896228163
0.0658147531229417
0.0277182311704042
0.0270062841916075
0.0645346560767885
0.0568780585060742
0.025945972298641
0.0256924610329978
0.0509703056383456
0.0454889050086425
0.0242394874921779
0.0247459829622468
0.0548907658436322
0.0675561300492714
0.0252618725600552
0.0258296049095506
0.0867861513753917
0.0591898088371772
0.0239149190384583
0.0243366924278407
0.0713153236383376
0.0490358279926747
0.0222660597953444
0.0225026675563981
0.0548180156696915
0.0520957770065589
0.0220961496985211
0.022337208218755
0.0617698252730151
0.0483944008557311
0.0598752747018401
0.0429825532428367
0.0233056489047593
0.0218666323211582
0.0419951328840402
0.0433372312051189
0.0215354119743747
0.0203269452758105
0.0412119037160979
0.0373052826055225
0.0193455130195133
0.0187373721743429
0.0350420828348742
0.0342975642937241
0.0193163407115118
0.0197841358929706
0.0350898037212979
0.0321350438861093
0.0197579007022968
0.0191691109592549
0.0310837772219697
0.0289888962830929
0.0176045313278023
0.0176596938106312
0.0306991855081319
0.0314619609291112
0.017292951855284
0.0174451383416864
0.0342376936021574
0.034240988060872
0.0162300020593578
0.0158439429765921
0.0289012902246364
0.0268219201579242
0.0157262649406101
0.0157269462365748
0.0266774683075335
0.0249730714788296
0.015578290735079
0.0152760735725946
0.0153773430974286
0.0155503370886379
0.0160449147336043
0.0305894468505871
0.0338459572555405
0.0163103653210582
0.0175233490478242
0.0342725408907902
0.0317820488233674
0.0174971435238532
0.017437358489404
0.0315693805358533
0.0298415686028968
0.0173229124749074
0.0185186515033499
0.0329240911977349
0.0303371776422378
0.0183897432207903
0.0191054032493297
0.031227145398373
0.0341820306778403
0.0192160669891317
0.0187782016243592
0.033033669374705
0.0337800735526189
0.0189027271533323
0.0198505395333923
0.037112784604212
0.0442191303327468
0.0214188773458359
0.021795154265508
0.0424337028050217
0.0475212649576215
0.0675404240233691
0.057447448931665
0.0254107512507581
0.0256045855208021
0.0661079663380736
0.0699372932607384
0.0273253284812345
0.0280486563342552
0.0887316946776774
0.0968917941461694
0.0289170421627421
0.0324269865165465
0.135631014234487
0.136489585798292
0.0326178069530671
0.0339541429698363
0.142817204862116
0.156361588926957
0.0381091187461533
0.0444865499192267
0.156077898369495
0.179367920631394
0.0495164733611802
0.0505749126951681
0.187573509801136
0.191744671930343
0.0503000472661834
0.0494495284948429
0.192234907205323
0.193012623152818
0.0495846360850926
0.0492126148417052
0.191407291102572
0.190494396320264
0.0496916444500299
0.049286926206662
0.187850766939916
0.187318609123055
0.0497365857479111
0.0494103348515914
0.18464585651023
0.185183724942975
0.0498983532131763
0.0496280998656378
0.183799284708896
0.185796356587951
0.0502345394559706
0.0503043454521074
0.186052050885741
0.188795599750013
0.0508839101562829
0.0506202561651735
0.192867094260893
0.194294024495711
0.0506505065834933
0.0503774590048025
0.192385513224367
0.191543753360115
0.0505490897845311
0.0508756811960077
0.191395742820994
0.190456061757291
0.0504603264346777
0.0506726348715752
0.192284954049323
0.190661463189753
0.050258860535398
0.0508203830589269
0.191812461595445
0.190114678170982
0.0503060692376852
0.0504475470831984
0.190814390502053
0.189768530118649
0.0499091926015181
0.0502247035793246
0.192024870208048
0.192320707694195
0.0497596821488955
0.0501445551307856
0.195651646382281
0.197036698912844
0.0496496337920697
0.0502970752936128
0.199956242022278
0.200265979543976
0.0504412684255724
0.0515051865397333
0.200098226603661
0.195423603211781
0.0517373410955466
0.0504617672820949
0.18610529863542
0.16084092124853
0.0452460300067993
0.0393311539413774
0.162080182838217
0.152338534206931
0.0354904167816339
0.0323852724619466
0.149906438978326
0.101682308589396
0.0274160329561453
0.0267489375240513
0.0842928178748483
0.073262898698426
0.0264255606475574
0.0260125191506212
0.0635911591066773
0.0774830500025846
0.0275462868547052
0.0288606924669125
0.0940071675172522
0.117298167111142
0.0300671933787334
0.0331225861998229
0.11734101058779
0.121574224510157
0.0371862297969543
0.0438536603500466
0.137970376183542
0.14767102190414
0.0495205442497878
0.0506774554930927
0.153243351368414
0.157596960157429
0.0510059279626683
0.0495482978880731
0.159844593498841
0.162178271443706
0.049465570297466
0.0483605940117222
0.16080604756022
0.161627773861953
0.0490098943524783
0.0483452618339197
0.159136863666777
0.16028968155784
0.0489528193441555
0.048431328803167
0.158273709843168
0.160032589615181
0.0490783587258748
0.0488067272357773
0.159425662537181
0.161290328407369
0.0494275532245121
0.048772698601674
0.160736479752293
0.162079259957706
0.0492533808192328
0.0490019828111239
0.16066320732432
0.161562254042541
0.0494206723653197
0.0490951379650218
0.161803684989913
0.162104501706326
0.0489613920021971
0.0492289680703122
0.16354781336299
0.162722448036713
0.0491474079615156
0.0494165864268601
0.159108913412866
0.157074179068767
0.0488152719161123
0.0488033116240111
0.156595528521291
0.154691824064187
0.0481435279025823
0.0485514060620834
0.155944968382348
0.154589300348734
0.0479524011518016
0.0484646718636844
0.156924836942758
0.155997887649639
0.0478839067802537
0.0485557417708565
0.157805415323081
0.156736962540847
0.0479402571952895
0.0486820270745228
0.156947554811677
0.154047478178658
0.0485062785434607
0.049796747584882
0.151842430346771
0.147778059642963
0.0495814960798629
0.0485330712412141
0.142845035153559
0.13388788458721
0.043120047304974
0.0358496730299086
0.119080195869883
0.111043111828194
0.0414199354405452
0.0457587966806763
0.116540472859764
0.119749390385343
0.0465987406100043
0.0474136271745323
0.122820025877472
0.124126748090808
0.0463447629671616
0.047169308491641
0.12696220095049
0.126932013347264
0.0462005350142077
0.0469417323937675
0.129342528402586
0.12813171914264
0.0459106926753074
0.0466705899107292
0.130034381902953
0.127983080720436
0.0459234705809957
0.0466588957759263
0.129733982292482
0.128685594832516
0.046094096190341
0.0467950683912915
0.130287131899051
0.130959881063972
0.0467470853967947
0.0473581158510473
0.132259499004909
0.135394299780958
0.0470804250393911
0.04720867440424
0.135886211631122
0.134822035730368
0.046949925599653
0.0470332589486379
0.134749639608933
0.134460246944209
0.0473480969473717
0.046956285739577
0.133801097322969
0.134837555984179
0.0472437083217296
0.0467022379708522
0.13375131305975
0.133867523358729
0.0474650528607224
0.0467231093122557
0.132164461776079
0.132639378676408
0.0471515421393853
0.0463743980321543
0.130567517612663
0.132381519064712
0.0471623902124813
0.0463502452695504
0.130259662828799
0.132189457761847
0.0474153541962619
0.0466195505946247
0.129839989773445
0.131137039311822
0.0479642548903539
0.0472710402530753
0.128524509240029
0.127077305558671
0.0484786072964722
0.0475626441779828
0.123803522899789
0.120185431767832
0.0467133757972902
0.0421157239996288
0.114354992904177
0.103579332331354
0.037969896737626
0.0328118097758919
0.095038903347465
0.0940267639015557
0.0306284816582558
0.028794531985949
0.0780397984917318
0.0791266115472147
0.0294099854755462
0.0302377742908856
0.0828840026182931
0.0862330033442915
0.0305679513305666
0.0393036788500158
0.108513927820143
0.112125260450549
0.038982246795806
0.0386512501757188
0.112933034605641
0.11313294208524
0.0385764889919367
0.038667042961532
0.11323215617023
0.114447151153063
0.0389520477696252
0.0387983563611586
0.115554633176331
0.115574338964319
0.0388871726039822
0.038725152987121
0.116117879690185
0.116702191021155
0.0388497748102307
0.0389632050780559
0.113432828120429
0.111659266273557
0.038516059618995
0.0383907438219009
0.111176944547453
0.11132635796122
0.0383164418272763
0.0384510076544918
0.110461810422247
0.108370684230917
0.038509957466267
0.0387085243292258
0.105094709036536
0.100650852333755
0.0372248056939313
0.0318375320052492
0.0938926773219333
0.0896893556568014
0.0292842165114258
0.0316593023368287
0.1113058494028
0.108088140428241
0.0307102531550312
0.0302765127156528
0.106566428435657
0.080506701676494
0.0284482042817419
0.0275812845656949
0.0665772710591383
0.0696752038526813
0.0282909377221059
0.0292332394732643
0.0852754705513344
0.0879423692851937
0.0291712577081675
0.0285228151752004
0.0728408572426007
0.0742930767767982
0.0281509098733599
0.0290034656494733
0.0782901784685606
0.0804247963388316
0.0298074141235747
0.030261831066693
0.0837191747709213
0.0855233445335447
0.0305066426224763
0.0312652997829328
0.0865251979035449
0.0867892910128782
0.0318033627284299
0.0321810926502085
0.0864443563403482
0.0864458753904842
0.0324385550070854
0.0329868026094965
0.0876194554235075
0.0896544243499756
0.0329817483821105
0.0329006454574627
0.0894129039744814
0.0890907613744938
0.0330029216168865
0.0328617098193433
0.088855109403458
0.0883412630170311
0.0328293289588042
0.0323283818912555
0.0876514453120336
0.0881472868487322
0.0318368729676837
0.0312611210941125
0.0884718417113083
0.0885783923159079
0.0306962317414168
0.0300874442520994
0.0268229127764449
0.0263754044019182
0.0258531128777145
0.0252397304743293
0.023380788910587
0.0232137841692403
0.0228729647815045
0.022558880869678
0.0201152563809021