/*--------------------------------*- C++ -*----------------------------------*\
| =========                 |                                                 |
| \\      /  F ield         | OpenFOAM: The Open Source CFD Toolbox           |
|  \\    /   O peration     | Version:  2312                                  |
|   \\  /    A nd           | Website:  www.openfoam.com                      |
|    \\/     M anipulation  |                                                 |
\*---------------------------------------------------------------------------*/
FoamFile
{
    version     2.0;
    format      ascii;
    arch        "LSB;label=32;scalar=64";
    class       volScalarField;
    location    "1200";
    object      nut;
}
// * * * * * * * * * * * * * * * * * * * * * * * * * * * * * * * * * * * * * //

dimensions      [0 2 -1 0 0 0 0];

internalField   nonuniform List<scalar> 
162506
(
0.00149778959190553
0.00155215307820309
0.000102987457196319
7.88006980703907e-05
3.9261054334028e-05
9.52643004796801e-05
0.000460201403061076
0.000530879077136929
9.31984829004408e-05
6.34522777030838e-05
6.95894724053675e-05
0.000885929753799854
0.00093696100310691
0.00130190852504931
0.00293195001313203
0.00332147889218747
8.95290015555862e-05
9.28914443636405e-05
0.00132939870640472
0.000677621810865537
0.000910845134227614
7.9874095304588e-05
8.51387811893214e-05
3.87255144160249e-05
4.36014008476031e-05
6.12589219019367e-05
5.67982343716295e-05
0.00570470209910083
0.000106154097706965
9.82013011019782e-05
0.00813584687616593
0.007724214295182
0.00496197899052844
0.0104499470871336
0.0150001155608963
0.0149413124936439
0.000100603881389726
0.000109813052791219
0.0106570392785707
0.00846297828573561
0.000113129346851223
0.000110713117122427
0.00510445133286339
0.0045812923346314
0.000110746092001271
0.000110631083908743
0.00324816573405031
0.000815502867906492
8.70933683280748e-05
4.53255920040203e-05
8.51772693892364e-05
9.13393483232197e-05
5.00791141505661e-05
9.64935256986484e-05
0.00116084554888267
0.00128189900831319
0.000101217788775969
9.79042252585371e-05
0.000863633754807618
0.00214224338822867
8.25006386807198e-05
8.17069599492561e-05
0.00095501245668337
0.00081982525127675
0.00228422588537637
8.06791403516518e-05
9.25356727289501e-05
0.000109623903960306
9.78206622419161e-05
0.00435004633430466
0.00283499276572611
0.00418191063755912
0.0059393970690238
0.00352958478802347
0.00247403705155867
0.00192450480336499
0.00167930834557599
0.00333948267578594
0.00298423509342315
0.00010268245483715
0.000113684691052849
0.00530281614979651
0.00507031274290794
0.00827190438110691
0.000102931345296927
0.000112842897474998
9.99222800414409e-05
9.02205311995985e-05
0.0101044248964791
0.00566192129866509
0.0131009700109854
0.00962105608163344
0.0145284866123702
0.0125331844042885
0.00871280427936837
0.0116672749904603
0.015000310436687
0.0150014782369724
0.0150016943253806
0.015000440656621
0.0150003381733926
0.0103850700313244
0.0109421142509955
0.000109774152256469
0.000100687853372747
0.0149430636956797
0.00731807042372011
9.82866135195301e-05
0.000107008811709941
0.0056989822174682
0.00570790357895924
0.000110705839256574
0.000113664570291153
0.00931352803360589
0.00803723883059058
0.000111184078109093
0.000110075976135458
0.00787847482415552
0.00485581115440941
0.000110958221843523
0.000110718938593115
0.00380502951690741
0.00334318853137971
0.000115615023627576
0.000112463344898457
0.00230363813088591
0.00112572509612929
9.69957771394145e-05
5.41724285621167e-05
9.42751653233746e-05
8.76787059947501e-05
4.83543116435894e-05
7.64177673811692e-05
0.000744106192111929
0.000702611073269001
0.000112255831774478
9.67018436922507e-05
0.00131387402373704
0.00219414232407157
9.34309580423895e-05
8.75989784227166e-05
0.00271903308307149
0.00373552988671888
0.000107805376589302
0.000106073380691266
0.0035155956828191
0.00824552556291226
0.000106405415725116
9.81112530252839e-05
0.00480106932485492
0.00691880950233799
0.000104860847485004
0.000102388850419813
0.00802706339966693
0.00709638101279308
0.0110147313019516
8.65933109462284e-05
9.60092157636578e-05
0.000105912805891507
9.42711084556525e-05
0.0149278964374005
0.00818191423674876
0.0150011151520054
0.0150007005741433
0.0150003448735219
0.0150008108064191
0.0150010933451404
0.0150004692222796
0.0134243476706569
0.0141997340394714
0.00868985352418123
0.010454748201087
0.00703788298858008
0.0048959541716835
0.00126310635960272
0.0027892619132185
0.00312907262821233
9.01386704597501e-05
9.62959919039904e-05
0.00143554782817685
0.00168889638740852
0.000103016925180345
0.000110804911717564
0.00318643408297795
0.0053223104850565
0.000110970614989642
0.000111899176528504
0.00415845388074685
0.00515656030576934
0.000110580275609596
0.000108168962816864
0.00276162877043155
0.00275020886640916
0.000105268461147608
0.000108591484229217
0.00251844638412031
0.00135797438263366
8.98298682093236e-05
9.46405954278684e-05
0.00138298613696318
0.000725686178543054
8.71370812803419e-05
8.64009415096861e-05
0.000720446441931632
0.000611320319627021
8.03571829668908e-05
7.6137967412162e-05
0.000697389183755473
0.000640364249489786
7.77323436396071e-05
7.31185557627462e-05
0.000815362983592637
0.000588046165846964
5.39892092073148e-05
5.21231212837741e-05
0.000510050024655137
0.000618527057136335
6.46505538440119e-05
5.75191983874903e-05
3.32089006193481e-05
6.77659911500592e-05
0.000603944202865649
0.000540497388963773
7.23241381124979e-05
7.24110952035474e-05
0.000492200153494784
0.00048093198183297
6.02951839225971e-05
3.5888534154462e-05
6.82149452672499e-05
7.44093153726617e-05
0.000384406818681074
7.05363229978932e-05
3.37055397834652e-05
3.50641878714636e-05
7.43922409486186e-05
0.000503870174296757
8.75680421462263e-05
8.46238660362604e-05
0.000561185790976749
0.000968526594766058
8.65170461059303e-05
8.62996555469342e-05
0.00152994501996625
0.00207997975028346
0.000110603709671683
0.000109299032212011
0.00293679760342661
0.00432264583728784
0.000111642135096937
0.00010722529859851
0.00702158111733917
0.00436783422812326
9.5155337181146e-05
9.5565593591377e-05
0.00442217710511707
0.00496043853920349
9.7770508544463e-05
0.000115482238097387
0.008942515549044
0.0113981315192597
0.000114554902621789
0.0001134713605701
0.0112402134375167
0.00701976061820144
0.000106435204072967
9.44093918554865e-05
0.014928121348004
0.014785971876171
0.0132763929487203
0.00587767637149794
0.011668603733538
0.00941393803727164
0.012222027208758
9.55658424518477e-05
8.70039118432876e-05
9.01438820542535e-05
0.0146915304614211
0.00536398654207402
9.95847093647976e-05
0.00010366923237199
0.0067141114225969
0.00564625710845642
0.000113321628276539
0.00010279914789615
0.00279483802793025
0.00295211575372972
0.00412955315329307
9.71566658407057e-05
0.00011073423110286
0.000113005666026842
0.000102844259997502
0.00766074472918202
0.00509401916337229
9.10200232737083e-05
0.000831311541203037
0.00235099297459915
8.14041443263572e-05
7.01138708062841e-05
0.000880434188088131
0.00101908564975223
6.37797704736198e-05
9.4744634352129e-05
0.000531951355249789
0.000455061573768609
7.79976619755316e-05
4.00561618114456e-05
9.87571925330313e-05
5.99531486803993e-05
6.40394592369621e-05
0.000927460811009834
0.000680690692218699
8.46168574749595e-05
8.28989819239724e-05
4.37521950856824e-05
3.95216800697521e-05
8.37538402398189e-05
4.57510996175132e-05
8.6367895635022e-05
0.00077773972645471
0.000875654379224597
9.74996657960652e-05
0.000103776023140313
0.001282097951262
0.00117355357675532
9.25379534590614e-05
5.03683877965052e-05
9.53879749053571e-05
9.6838102077002e-05
5.38095185855947e-05
9.33022017339285e-05
0.00115157797664405
0.002363085231716
0.000113801843613928
0.000106890261784991
0.00267090663228188
0.00135426277914965
9.4418775831454e-05
9.52178168138464e-05
0.00128809773914884
0.00135030534457749
9.68204914497413e-05
6.47573280962187e-05
0.00071310873735735
0.000422651543353864
5.19336613090454e-05
4.29912349721749e-05
0.00028897045340172
0.000373916434357179
4.75734289707341e-05
4.21586380829831e-05
0.000287870172429655
0.000385516324866556
4.75400281061708e-05
5.36907234736203e-05
0.000513762690925759
0.000622771587933796
6.21222312638283e-05
3.35120571813682e-05
5.22766326144008e-05
5.29994748266296e-05
3.82897401690707e-05
6.54289059953816e-05
0.000391794423708623
0.000488309509275022
6.65890525420752e-05
6.29007904534862e-05
0.000864195506971637
0.00041906798989768
5.6464091164435e-05
5.08532623668426e-05
0.000383950885134671
0.000313638186863439
5.87218165959346e-05
7.29390076973126e-05
0.000428208042086785
0.000826162272402986
8.0439723791738e-05
0.000110108309089147
0.000836328415916837
0.0013160407753146
8.93482285472217e-05
9.54985062743387e-05
0.00156101315119267
0.00262174403794335
0.000113727776820077
9.82782785884717e-05
0.00289680349542931
0.00413470311467375
9.60068256617854e-05
9.65804976733168e-05
0.00413527234812181
0.0048976226806476
0.00011513202309761
0.000114694898201986
0.00793502928195319
0.007920569061172
0.00011501266700291
0.000114998659629063
0.00894415790383555
0.00493980420205065
9.64763266312485e-05
0.000100261352271249
0.00754419546892376
0.00319913255661386
0.00774676716456455
0.007772417163028
0.0147373981116765
0.0119473267402775
0.0105106232033968
0.00879852981852496
0.0115705649335567
0.0134230933538591
0.011091514044361
0.00476620193849092
9.85272831257631e-05
0.000105249034262334
0.00819969905499562
0.00341747506822999
0.000105877901844567
8.30663883342794e-05
0.00205765982629696
0.00290602700744348
8.69783146375883e-05
9.27774840551399e-05
0.00256268639502229
0.00136895851950207
9.76356714110357e-05
0.000109872431772222
0.000730184669611639
0.00082486067239343
8.52835234435704e-05
4.67749645155977e-05
7.71496004683235e-05
8.44149356458658e-05
3.39704995493309e-05
7.08180970465304e-05
0.000540841001240936
0.000635663719075295
8.54534511025421e-05
8.61135468790571e-05
0.000724882909660858
0.000668703633738224
7.98670757849156e-05
7.57800545404157e-05
0.000586183757266451
0.000545912829334562
7.63963645856178e-05
6.32765895448151e-05
0.000374523317436209
6.72058207483402e-05
3.27131697109158e-05
3.27016617615143e-05
5.57622876717862e-05
0.000389157258305265
6.15267513354996e-05
6.3813802128487e-05
0.000322567899803107
0.000411101271295169
5.45926335644131e-05
5.25675360078693e-05
2.8102440758486e-05
5.04936301376224e-05
0.00042439153068632
0.000489160950704455
5.72592783072591e-05
5.31318632674246e-05
0.000409068435647988
0.000283365107583595
4.34182261369136e-05
4.00512526713602e-05
0.000259944100023263
0.00024595680452307
3.81421662876543e-05
3.92147882202762e-05
0.000250137762845489
0.000184618150025179
3.64098627542442e-05
3.55939819755485e-05
0.000214163001792786
0.000177659137008757
2.96743154715521e-05
3.73486171064946e-05
0.000190498132676629
0.000259500734751847
3.74486731054502e-05
4.28348511634792e-05
0.00029533300980655
0.000342614105150748
3.77664687478492e-05
4.47032946613824e-05
0.000325329497328255
0.000277035906321202
4.32825680189684e-05
5.52843663547866e-05
4.28044125725456e-05
7.00524229496336e-05
0.000312027771003692
0.000380621762095946
7.3642067400295e-05
6.74496972182794e-05
0.000448557744906221
0.000507069923238418
6.27948201631357e-05
5.64091015074871e-05
0.000445029782815884
0.00043256352670977
7.55652363764473e-05
7.25207394102571e-05
0.000491465494546855
0.00049423853555399
0.000610810222657642
0.000492734263889041
0.00030422838765164
0.000435742999925796
0.000835288675926207
8.29696798076872e-05
6.56667146957627e-05
0.000577949759236268
0.000364063677397205
4.64315979876861e-05
5.11103009678394e-05
0.000461454280272727
0.00075438045830121
6.36751053421507e-05
6.7996398002386e-05
0.000474193350400904
0.00039048681481054
6.0270370653128e-05
5.44110024874917e-05
0.000333871092689647
0.000336781710622636
5.50310164992066e-05
5.30442411595142e-05
0.000499826896314584
0.000950344095395871
7.45135847288493e-05
0.000477714649789365
0.000714233522601134
7.37840217624273e-05
6.30566567809587e-05
0.000583666735183583
0.000505504787695965
6.06657733745631e-05
8.15269674505298e-05
0.000380789417534197
0.000461499861627791
9.74628185263046e-05
0.000107558927224957
0.000651372491798317
0.000663859929128613
9.36400570474495e-05
9.22597463566323e-05
0.000973778813775527
0.00178023073344274
9.22515993888083e-05
9.66566251761478e-05
0.001730251533814
0.00304906520300303
9.71811039354503e-05
0.000114943308717557
0.00275209799470385
0.00283636925255661
0.000115305139568742
0.000115424040083614
0.00519749521371785
0.00411907011456718
9.69235403946932e-05
9.57628163390509e-05
0.00440125634418047
0.00435109118154958
9.59436887390089e-05
0.000107234758213656
0.00760977579783602
0.00412427902629634
0.000107786428534755
0.000112851918318273
0.0032069811472595
0.00234762769466956
0.000110596834840271
8.33178110586105e-05
0.0018757694790227
0.000897115473293326
9.17621030405512e-05
8.11768520090926e-05
0.000521337159005776
0.000299544139484865
5.4878556831313e-05
5.80958607581791e-05
0.000791633485149702
0.000560322981920277
4.65126625354783e-05
5.68084172552429e-05
0.000797409024536288
0.000585246842794657
5.46511939372113e-05
5.32603852052475e-05
0.000417860492719303
0.000423349843529174
5.47495810157535e-05
5.40210340798632e-05
0.000430761853610697
0.000389147156653696
4.96157629450229e-05
4.82905363372716e-05
2.61109306106742e-05
4.10214787174635e-05
0.000285163022949981
0.000243897538850378
4.25330442981924e-05
4.55228666507288e-05
0.000224939514965556
0.000334940095024486
3.98418185469137e-05
2.46705777718776e-05
4.25946780117095e-05
4.49132715393529e-05
2.66079967791624e-05
4.53859309456318e-05
0.000428894600804349
0.000443281889160572
5.32049895060511e-05
4.36857952879003e-05
0.000306373005456479
0.000217355981596634
3.63303760871901e-05
3.85305239579399e-05
0.000182540020066073
0.000174492410555331
3.72435018019828e-05
3.26531325684252e-05
0.000129703696833705
0.000127873744095495
3.19772243470339e-05
3.07395443233958e-05
0.000153074605553874
0.000147343666159338
3.34234594081014e-05
2.62060203338623e-05
0.00012621808248133
0.000140615926980325
2.41477497529174e-05
2.97882635984192e-05
0.000168666722863292
0.000213489960700627
3.01985007149986e-05
3.56642905435084e-05
0.000242836040276352
0.000263703429698022
4.08066011011557e-05
3.3526990375186e-05
0.000246793381242986
0.000212249162581138
3.78679003949482e-05
3.89845230112393e-05
0.000204252315661627
0.000265604055442077
4.76765650423226e-05
5.93931127334646e-05
4.76816108693699e-05
7.56696369566821e-05
0.000303597671950324
0.000370170969902433
7.98069309472575e-05
7.31503587557566e-05
0.000430517066720155
0.000575805682572419
7.03279096538868e-05
8.11306966467586e-05
0.000556435325036929
0.000438973242407113
8.01512889933999e-05
0.000373475871034668
0.000294561771640595
0.000184157651252176
0.000124809654419539
0.000137443762634962
0.000211767849094362
0.000223269910250646
0.0001568927057659
0.000281593214036689
0.000472906482250859
0.000651894965472107
0.000108934642932428
0.00011007933090761
0.000962937740690503
0.00158498003925411
0.000113294255998433
0.000113811635082586
0.00159285526209769
0.00170004865236993
9.76835383220263e-05
9.76114531102404e-05
0.00316901027596878
0.00304244090412157
9.69342503585976e-05
0.000115208347921799
0.00304051035024817
0.00171410159904853
0.000111097879381956
0.000112613386882865
0.00129400306272313
0.000936054508843143
9.50987632073785e-05
8.26763367400581e-05
0.000963876143646636
0.000412066426758276
7.36006931347848e-05
7.28019567693114e-05
0.00042593561252488
0.000409512397026267
4.15973709143033e-05
4.91290567331904e-05
0.00046406083076328
0.000444812665659892
4.79957493224191e-05
5.23006713643797e-05
0.000328615459702852
0.000287866111418062
3.93154431380038e-05
2.58796334706611e-05
4.45226789686567e-05
4.64399258569022e-05
2.96977374756852e-05
4.12343999229108e-05
0.000233919929186965
0.000200681342301932
3.5361838669708e-05
3.02275264842289e-05
0.000230044044538035
0.000189777554900495
2.84302331629064e-05
2.34435177162987e-05
0.000175353319032562
0.000148590247278531
2.28042296396351e-05
1.74695088842257e-05
0.000125684315793904
0.000111484713174691
2.22511280669039e-05
1.82621521278289e-05
0.000107195734607456
0.000108790499477547
2.23822077071038e-05
2.32752059587325e-05
0.000107641052555905
0.000106097545951802
2.29439704082366e-05
2.24637303768128e-05
0.000106120223103502
0.000107901428137542
1.82021774025354e-05
2.24016696487926e-05
0.000117301138838044
0.000135141935358183
1.78601968219432e-05
2.32321810990072e-05
0.000154948251078932
0.000188900379747456
2.53568631621557e-05
3.08820112830151e-05
0.00021267208656302
0.000181768096682659
3.0769785772649e-05
3.29834009730131e-05
0.00017511637378148
0.000160605929935299
3.8926848989848e-05
4.29964788188748e-05
0.000196487002826283
0.000204800760695649
4.9764694321992e-05
6.12757799873262e-05
0.000293271496810638
0.00034864961542808
8.32360949683092e-05
5.38966212151884e-05
6.98255546383724e-05
8.09052720069215e-05
5.87401639045637e-05
9.37652209912899e-05
0.000449143823208113
0.000551638083365516
9.58376650460965e-05
8.75406890321128e-05
0.00041941661807023
0.00045465431832491
8.08927500778492e-05
7.62003843885025e-05
0.000495879367325466
0.000570503299931155
7.96019936870399e-05
7.68484801037555e-05
0.00057116578978366
0.000522111001603308
7.2487467918554e-05
0.000507770690580516
0.000360879273267248
0.000410927856991249
0.000383232582040747
0.000434795840293992
0.000508675760175311
0.000626782480424124
0.000111657554210328
9.80028378805574e-05
0.000761149842932626
0.00105719791215953
9.56980781656202e-05
0.000816221775296733
0.000767015494147994
0.000720940321435689
0.000944770389626281
0.000110159540107726
9.5584841844125e-05
0.000977553047320871
0.000973396603678442
9.2788229606054e-05
8.84820311003112e-05
0.000949343953803822
0.000595189178841131
7.66696395944453e-05
6.59932286264666e-05
0.000713754615798776
0.000640049253175524
5.96356980117439e-05
5.95982620023062e-05
0.000727497768285853
0.000593591508357526
6.46393946539265e-05
6.52983259912435e-05
0.000429577772117915
0.000345307476241141
6.14359542780243e-05
5.35229199309685e-05
0.000332384372160636
0.000304396719754597
5.1216499765068e-05
5.02355737383934e-05
0.000255821712281522
0.000220519898794104
5.84237839187032e-05
4.91065568645565e-05
2.98498571707243e-05
4.30372389047856e-05
0.000216307991156072
0.000181976939367576
3.62416261088514e-05
2.86908939614801e-05
0.000197024011814316
0.000190471252335229
2.44380479734233e-05
2.08169646997772e-05
0.000129839629033143
0.000145726508578281
1.61715846453895e-05
1.79065579676592e-05
0.000132820110107438
9.70177733793566e-05
1.99267073701165e-05
1.60201036309693e-05
9.71458839683275e-05
9.48357959470369e-05
1.92266662734967e-05
1.67099558373403e-05
8.56812125946124e-05
8.06557525371973e-05
1.90510718267672e-05
1.69408005673526e-05
8.3515283329693e-05
8.96858530980911e-05
2.76262609869925e-05
2.08028065101188e-05
9.73673153130303e-05
8.17992867903222e-05
2.49295764542042e-05
2.61440012635655e-05
8.69023820517245e-05
9.39250833947575e-05
2.9863064209239e-05
2.78053915633868e-05
8.95666427405577e-05
8.61588224984685e-05
2.08826585391545e-05
2.47634050512961e-05
8.12954660855432e-05
9.26466850652908e-05
2.03079685833717e-05
2.29791326933889e-05
8.94399670942962e-05
8.31859975962144e-05
1.65501407512594e-05
1.73137619331354e-05
8.31420600078451e-05
8.75800512787335e-05
1.70434350244929e-05
2.0653825549782e-05
0.000102292961853064
0.000109443409549691
1.66185999215813e-05
2.03575770275275e-05
0.000107062322019921
0.000146013550361353
1.86392038165104e-05
1.78381232045286e-05
0.000182562430050573
0.000153798599808907
1.86593012796364e-05
2.08080713403694e-05
9.62391270061726e-05
0.000102124644077714
1.57592100720022e-05
2.25053551661192e-05
0.000104123559113651
8.96663719783113e-05
1.81112818166664e-05
1.78615388053059e-05
8.17107945949313e-05
7.95981326642196e-05
1.67228831597415e-05
1.96943137052256e-05
9.02678999704663e-05
9.61015317510446e-05
2.07978095811442e-05
2.48894229812302e-05
8.48698568435708e-05
7.92521027942839e-05
1.95853406415176e-05
2.5186665800599e-05
9.50363794438368e-05
9.8125307877122e-05
2.60198924219365e-05
2.46580317230627e-05
8.74690766620381e-05
8.88120706055533e-05
2.60235494765164e-05
2.0860001604915e-05
0.000103862003738099
9.41062037434211e-05
2.10892616770694e-05
1.6323786548097e-05
7.89942481576388e-05
7.92338078402342e-05
1.83482193571446e-05
1.77184523111012e-05
8.82411025459249e-05
9.60830752745523e-05
1.99296869020636e-05
1.56438920891697e-05
9.13818034257778e-05
8.89123254565315e-05
1.97572766573738e-05
1.85141346841946e-05
0.000126985467895471
0.000160850808681675
9.16065120408436e-05
7.98762862744158e-05
6.10190064381922e-05
5.94352687906593e-05
5.9719718923777e-05
6.74201872347718e-05
8.72122998835392e-05
0.000126589783351751
0.000248355064452551
0.000334388846749811
0.000499105946729137
0.000653429778778144
9.51550126653045e-05
9.20693209607851e-05
0.000669064306358618
0.000555561470764705
0.000100832814471628
8.19131313566616e-05
0.00049348039386837
0.000429968688226248
7.2732958982067e-05
7.00792681159666e-05
0.000460712438488175
0.000472288332955164
5.75421652776845e-05
5.61372713436267e-05
0.000519783760616853
0.000410119887650992
6.17390089166508e-05
6.59707275154016e-05
0.000358397496868514
0.000297360064707559
6.49530860869967e-05
5.75358258699658e-05
0.000266762207397011
0.000272709563725472
5.66380636275924e-05
5.23383135920764e-05
0.000212355601719644
0.000197559875012367
4.8550005774158e-05
3.41867241224137e-05
4.4973527257625e-05
3.97983461019554e-05
0.000167974846432156
0.000185839621590355
3.07799006485345e-05
2.28852903946526e-05
0.000154442966421931
0.000166641038961121
1.92085814505364e-05
1.96942087284038e-05
0.000119738122205162
0.000108206740119687
2.18960228535174e-05
2.15546822910472e-05
9.83141629574913e-05
8.37921332587675e-05
2.34847534131942e-05
2.2736289333109e-05
7.52397605298153e-05
6.95685211620155e-05
2.2572951799388e-05
2.29120500159404e-05
6.06241695064997e-05
5.42675191760965e-05
2.41977132370604e-05
2.39468925691318e-05
4.96791204197724e-05
4.53520788252597e-05
2.31721260210206e-05
2.0993615969315e-05
4.30679905573661e-05
4.0104158294326e-05
2.30072485611828e-05
2.46302608618652e-05
4.04900985135788e-05
4.0286237846305e-05
2.46279281306412e-05
2.36670636767377e-05
3.98703242331284e-05
4.12399289770503e-05
2.26750643409076e-05
2.33470626729393e-05
4.19189822310399e-05
4.53947324175641e-05
2.2465725929618e-05
2.50562617380895e-05
4.99173308882036e-05
5.55982500876124e-05
2.38703431611365e-05
2.28816780291025e-05
6.15932963301009e-05
6.68208629527492e-05
2.34099819117561e-05
2.4030212598385e-05
7.66184502401598e-05
8.6111801029551e-05
2.34671590720013e-05
2.40365590004901e-05
9.3862290408923e-05
0.000120123579886633
2.33394796377836e-05
2.20825353942841e-05
0.000118112758416173
0.000116818223744083
2.17053889882675e-05
2.24534430302072e-05
0.00014931254511269
0.000142229676533069
2.85038101672444e-05
3.62052421304886e-05
0.000141269207726344
0.000153150225943308
5.12375968316208e-05
4.90654492103529e-05
0.000173632023952427
0.000182670237906417
6.3847909811682e-05
5.32885248620549e-05
0.000223488963706952
0.000251136017862353
6.2138712568233e-05
8.31317953752489e-05
0.000365185191857491
0.000471283892301995
9.54128882323571e-05
9.10676339551496e-05
6.14297501371919e-05
9.86663062306588e-05
0.000619854235017933
0.00075820228158002
9.41354978927559e-05
8.9252905782569e-05
0.000690047527620955
0.000667788860413139
8.33504921495758e-05
8.07641290002526e-05
0.000591392459027449
0.000678853808400297
9.2301866181998e-05
8.08894087379979e-05
0.000732910826781648
0.000959019706367527
8.14245967308777e-05
7.12080612982168e-05
0.000641336086843971
0.00065060031110375
6.57821955075705e-05
8.70968902333876e-05
0.000561021569232664
0.000786790226766733
8.61445592315119e-05
0.000110751344186848
0.00120839478213489
0.00109836604049876
0.000116990194571415
0.000139779603249176
0.000968778868521697
0.000852781760759979
0.000143616290626515
0.00011985478238956
0.000573551582579921
0.000532932364047575
0.000118082315077416
0.000108063226067074
0.000614379891827804
0.000430170339346721
0.000394847766217104
0.000431450967790581
0.000548688183493226
0.000107519742760811
0.000137658411453518
0.000818002753371636
0.000874615917376301
0.000117610154588623
0.000103926511013325
0.000863060227565063
0.000604340675148228
8.4922033601553e-05
7.76115774772104e-05
0.000430912965671861
0.000449108840679478
6.85330858478271e-05
6.11431535901857e-05
0.000429314112286809
0.000477484861798165
6.03361561230203e-05
6.91021353323353e-05
0.000494480038327904
0.000382146218494807
7.59787359094279e-05
7.48921786497613e-05
0.000342732145968764
0.000285182108181007
6.78432060725679e-05
6.81935102086154e-05
0.000317408482740677
0.000225788170858858
5.86787951474497e-05
5.42250554335812e-05
4.35012416410824e-05
6.04985840593301e-05
0.000221310298220905
0.00017196045544912
5.49377517043583e-05
4.79332977894561e-05
0.000186156166531521
0.000182260206701196
4.86258418762876e-05
3.63503092764121e-05
0.000100617179190198
0.000113267685258137
4.83982482578881e-05
4.91689987918525e-05
0.00010673441070871
9.60674659438824e-05
5.14212908729995e-05
4.53487670172979e-05
8.083018792997e-05
7.85451874134198e-05
4.0948349385188e-05
3.82080648824981e-05
8.16426507144209e-05
7.83937387350036e-05
3.84772142306636e-05
3.71246916475766e-05
6.93037059128529e-05
5.43046121369211e-05
3.54070342274978e-05
3.52150953449403e-05
4.48178428282348e-05
3.83041835870559e-05
3.31610309342559e-05
3.14506698685572e-05
3.47469576035119e-05
3.26638533013557e-05
2.94371882477902e-05
2.88616063631307e-05
3.15328274762852e-05
3.05296693162748e-05
2.73919530820664e-05
2.74270504664792e-05
3.01482803869287e-05
2.96817157112533e-05
2.62699637769214e-05
2.65744685235249e-05
2.97287363622946e-05
2.93192134656214e-05
2.64779518501979e-05
2.62748375786602e-05
2.88769709842666e-05
2.87061917327724e-05
2.73046062107379e-05
2.7551589449509e-05
2.95374964728856e-05
2.94961427894799e-05
2.73093021915798e-05
2.70889553781761e-05
2.88112906911649e-05
2.88656345045639e-05
2.70396270364133e-05
2.70919716999892e-05
2.92701193776485e-05
2.95207345127147e-05
2.63453650396621e-05
2.69542690891326e-05
2.89876812226229e-05
2.94112051012306e-05
2.75152210975253e-05
2.73176509732507e-05
2.98140309309488e-05
3.05932800930187e-05
2.8360791438212e-05
2.82176355776672e-05
3.09519058682854e-05
3.19305789546451e-05
2.97996010535213e-05
3.04869837436863e-05
3.3156460614334e-05
3.54179217823334e-05
3.25421677122065e-05
3.38642326429923e-05
3.90691596503121e-05
4.56693807517475e-05
3.61967135585706e-05
3.68038094985846e-05
5.55577197124864e-05
7.15310820118422e-05
3.89712348301994e-05
4.04083024962117e-05
8.09499417281632e-05
8.66199187382024e-05
4.00180335706032e-05
4.30549529249363e-05
7.98220652646541e-05
8.47420888815814e-05
4.59079084061229e-05
5.23540243553003e-05
0.000106768849800349
0.000117188125105059
5.3160458281772e-05
4.22796648667502e-05
9.54784213364775e-05
9.36228907974041e-05
3.26767360383837e-05
2.94042105190434e-05
0.000103040659956067
0.000101399837672621
2.53898867987391e-05
2.66276005834927e-05
0.000108514646845603
0.00011259934640633
3.14155856668783e-05
3.91635786488192e-05
0.000108574269669187
0.000100940349205917
3.72620455859433e-05
3.25329356648914e-05
8.13578260121949e-05
8.06625489811644e-05
3.74897285428005e-05
3.16526740633325e-05
8.29127536840029e-05
8.08449104344177e-05
3.20718656687237e-05
3.12076486123323e-05
6.93887397431493e-05
5.48895035756395e-05
2.92951836161887e-05
2.90090167289739e-05
4.40258215601001e-05
3.71289632786896e-05
2.67771072406911e-05
2.61516305487384e-05
3.32765087591614e-05
3.07034974721422e-05
2.4308258717657e-05
2.41629901501529e-05
2.93162830349534e-05
2.82269520999261e-05
2.26076932547384e-05
2.30000964668598e-05
2.78046220249351e-05
2.71395305141216e-05
2.20629686090563e-05
2.24252800266127e-05
2.68086741837275e-05
2.63477858842495e-05
2.19851590304794e-05
2.13755127564245e-05
2.67609861568953e-05
2.65335871300196e-05
2.19430119054536e-05
2.20869235991436e-05
2.60918209441577e-05
2.60491127965575e-05
2.21219155933593e-05
2.20262158724365e-05
2.66509779738865e-05
2.67143342364212e-05
2.2216752745407e-05
2.22722327367798e-05
2.60973089713792e-05
2.62528938538963e-05
2.14682918800303e-05
2.15616121521916e-05
2.65702802960104e-05
2.68783664726572e-05
2.15889433529583e-05
2.13139941664156e-05
2.69227866667355e-05
2.73905897254736e-05
2.24249304558512e-05
2.20703394960906e-05
2.78111467260491e-05
2.88244286691896e-05
2.34440525599043e-05
2.35603893509497e-05
3.00951996160493e-05
3.24629272571045e-05
2.54469446621605e-05
2.63248595234508e-05
3.62354435042998e-05
4.27952322594566e-05
2.82465486754324e-05
2.82152092564236e-05
5.37901325346701e-05
6.68870278251761e-05
2.98504318831947e-05
3.07818757018138e-05
7.78479665990301e-05
7.8841087344036e-05
3.03015806996068e-05
3.59677149798902e-05
8.00158202330447e-05
7.83673602464505e-05
3.24818484550308e-05
3.06122740941264e-05
8.12611820939497e-05
8.044263959037e-05
2.63715651156157e-05
2.71181367869232e-05
6.95962547727075e-05
7.02357706797216e-05
2.65702709839995e-05
2.50032103589641e-05
5.32528551662054e-05
4.67246184021366e-05
2.52749476422836e-05
2.34616253344694e-05
3.58586855198871e-05
3.39366204882866e-05
2.32463321960373e-05
2.12690898215303e-05
2.99186943519131e-05
2.92163435074219e-05
2.16408714733027e-05
2.01079341889269e-05
2.76307552691683e-05
2.72284348783227e-05
2.08456367175006e-05
1.95457085009053e-05
2.64479297144772e-05
2.66729022322145e-05
1.99363137114076e-05
1.99362204126561e-05
2.62046760596791e-05
2.58131441443719e-05
1.98525340747515e-05
2.05749774338171e-05
2.54621887069469e-05
2.64140949687719e-05
2.04238599059566e-05
2.02733231638793e-05
2.64223754136571e-05
2.54161698023153e-05
2.05466631810979e-05
2.04776627430969e-05
2.54847313140445e-05
2.6093355973543e-05
2.02669029272264e-05
1.97134203932187e-05
2.6188520315161e-05
2.57915837526897e-05
2.02857024141929e-05
2.07739649102671e-05
2.6539236833793e-05
2.68169138514365e-05