/*--------------------------------*- C++ -*----------------------------------*\
| =========                 |                                                 |
| \\      /  F ield         | OpenFOAM: The Open Source CFD Toolbox           |
|  \\    /   O peration     | Version:  2312                                  |
|   \\  /    A nd           | Website:  www.openfoam.com                      |
|    \\/     M anipulation  |                                                 |
\*---------------------------------------------------------------------------*/
FoamFile
{
    version     2.0;
    format      ascii;
    arch        "LSB;label=32;scalar=64";
    class       volScalarField;
    location    "1200";
    object      omega;
}
// * * * * * * * * * * * * * * * * * * * * * * * * * * * * * * * * * * * * * //

dimensions      [0 0 -1 0 0 0 0];

internalField   nonuniform List<scalar> 
162506
(
1.03451200198067
1.07662280201664
11.7856350434239
12.4495953745393
16.6335713477955
14.2585702267305
1.59027353901439
1.21832582010089
12.9040127175924
13.6380659133796
14.1861245365543
1.10881782808694
1.11131676273321
1.01921524102574
1.00297987675229
1.0060704392401
13.0955832757764
12.3548788585336
1.02202870667519
1.46606888378588
1.66572424062616
13.340168990459
12.7729295941687
16.5121417472916
15.9606933538989
14.2447932304251
14.3964001270251
1.00632428066014
11.8143755817194
12.5091826982601
1.00241110615685
1.00026623227667
1.00199727388013
1.00002293972807
0.999894468265703
1.00379888732439
12.2940992936954
11.6840030339334
1.00902038769247
1.61901788728683
11.6729974590039
11.6196993453974
1.47101996286506
1.67965422959538
12.4313223786206
12.0560064082485
1.1399596217128
1.65958814664465
14.5181250769902
17.1148222375381
12.4965707071847
12.7377020622646
17.8384602834156
14.9943017315341
1.81332550294539
1.52610762796625
13.6490019975543
13.1535638082885
1.44843158754252
2.41221579396961
13.8170718555049
12.647011334065
1.60132918903667
1.03328979823059
1.00676619642804
13.9019360180918
13.0361243804003
11.6869158277658
12.0024580794338
1.00216323648679
1.00816404820147
1.00253204658291
1.0006026244552
1.00199217594099
1.00655243946986
1.00761029241728
1.12008346421044
1.31298980689633
1.84971898123925
11.9884519880246
11.9532604748207
1.53239997020326
1.00559834747326
1.00179036054968
11.8114411971674
11.6054414538477
13.1762210856398
13.9108967911504
1.00388337196266
1.01000309842324
1.00011785949095
1.00011099864216
0.999955667247533
1.00000190924697
1.00047014281338
1.00002763819991
0.999912158166209
0.999839447247668
0.999860237091851
0.999923104034833
0.999913049052403
1.000047449186
1.00906645630085
11.6805825932352
12.2896222740326
1.00372041751383
1.00227549920045
12.4965942623196
11.8041479467598
1.00619994019387
1.46887942949659
11.6100200161005
11.6697585299669
1.6185068917619
1.8805657937574
12.7244949595834
12.7292531426283
1.88180364763414
2.02042289899136
13.4199646130923
13.0096078300672
1.80742673522153
1.21735317464704
12.3969385266703
13.5338460103159
2.28593031745733
3.1116582970027
16.2309148071676
18.9490401935763
13.5103104108516
15.8230905117506
21.7773396861491
19.448001393515
5.72828656133056
3.60466347137338
16.8257450872096
14.6522831705804
2.33572759946241
2.66058261367124
15.5961449783149
14.9065283225088
2.43031428763652
2.66617994273162
14.6605836092505
13.5245929049755
2.52094104563957
1.83661108610784
13.2115018517303
15.2974365561182
3.19405622003752
2.07702416178623
13.295741600182
13.6020685556451
1.88367035499782
1.01322010747914
1.0052560070553
14.9669424017033
13.9111835174442
12.8154071818486
13.6253564125947
1.00477211323613
1.01060947149883
0.999925155337952
0.999940200186505
0.999911628688797
0.999769550595977
0.999802986075501
0.999922034745336
0.99997589114099
0.999986220245436
1.00050474870514
1.00007368894029
1.00035605906955
1.00213519433353
1.01995895502493
1.00330940228486
1.00433216277254
13.0739494155464
12.3333042188771
1.01948379299628
1.07035596759664
11.7628798136163
12.0304696208013
1.13311759519391
1.67636104805618
12.4187726437412
12.9948432619004
1.80499460941109
2.01896750460945
13.4132757521237
14.6137031399159
2.73500174253387
2.74787594503966
14.6352645478976
14.1965459787225
2.6086142175573
4.38030181836791
17.4532075405616
16.5670875356466
4.19649695220269
4.86903178388816
19.8262528480854
20.3775592698803
7.56519746320146
8.23106742451065
22.4225950483294
24.5387191498757
7.94555829447605
5.94797975318553
22.6293701251969
24.4155449992307
6.83572851872104
8.9398318970578
32.1974976158552
38.3473044311046
11.0839491964014
12.3819289308693
34.4616843522167
37.3121603960454
54.1380524500713
32.0018059560845
13.9693124273193
12.6384478647268
30.0771230829333
28.5536846862272
12.244420056619
11.8791391708018
29.9721407096122
40.5646310344592
29.1483526170505
27.4414128610697
9.20517385580483
23.9757764518783
32.5244431177993
28.6462746482189
19.6722160829995
7.81893719140922
24.4907980207316
20.6068605805988
6.08286120410077
4.32476155674359
18.8775272958342
16.6885248444312
3.1999026004732
2.95987897054066
16.0787424917359
15.2883808901412
2.75583188826886
2.07570604905897
14.8633730653366
14.1534857696241
1.98352938645994
3.52580681757463
17.1323340089768
17.1379402973563
3.48581932734032
3.0909207120569
15.3369711063488
13.2263777867178
1.69013779635792
1.32003365109405
12.4084189279009
12.401425455264
1.32872208619441
1.01034391218396
12.8009993932022
13.6086987900073
1.00482128821448
0.999955106430593
1.00005122757988
1.00101020013721
1.00003224724109
1.00459149994815
1.01696309405209
13.8699302922481
14.9182942059531
13.8559395908347
1.00534291276672
1.01138204672251
13.1299495751731
13.2725958647901
2.09853032930235
1.54314614572146
11.9440083329848
11.9906311172426
1.8563515617144
1.00790279719405
1.00225610361133
11.9725405346465
11.6715595059301
11.5794549739649
11.7742794646222
1.0020302461975
1.00591006615826
13.0125232701391
1.03252467292611
1.00643517271877
13.8643168226141
14.1613283691397
1.10204432282534
1.1037912010488
13.4366362456007
12.7321862205653
1.31369681539945
2.01800033202489
12.5954319291547
16.0140905224368
13.5478550294409
13.2671853394079
13.7992790574299
1.16681136811123
1.15138146945244
13.113116320731
13.4797177942423
15.410646065026
15.3805359891166
14.4627943000702
17.0622308474093
12.4681535634078
2.09641919035474
1.5514742163089
13.1431948051196
13.6570878444456
1.65305244319686
2.26257736607484
12.7038606563331
17.7920612238104
14.9512368759036
16.2934164030971
18.9427580211256
13.6840747380628
3.75512742258881
2.36338766829622
13.5186574155857
14.1596722860376
2.59239270744155
4.35625052907568
17.2877619415701
17.8695757621214
4.46160884631553
4.485470986263
17.9414414986846
25.4998586546048
7.2217693835001
9.75637047127386
36.5057768967361
44.866377040198
11.2436590539146
10.8285273348972
43.1600764240516
52.0919371161538
16.2505054683471
16.0999852655039
46.955343665224
40.6745869015664
15.5406081301365
13.9851981415378
34.4361134536543
56.5131599588691
41.2215121932671
43.8616886124958
54.5477810828062
36.052506718652
15.0802971078095
12.9389374919411
34.7741067290717
32.4200603776123
12.8031456624564
12.0703189960261
33.9711529843735
32.0831734819364
10.4322350899536
8.95274730908213
26.6986531622601
23.8998196329332
6.92378380640676
6.47924082257678
23.8072368834825
21.7573905628567
5.71756408581349
3.67188891300299
17.6668636078454
16.8705701648381
2.62162097660069
2.1903438922157
15.6088479856326
19.5022699685186
3.86919759319869
3.73974970414356
18.3531726516214
18.3337648836135
3.74554957007341
2.04824132644347
14.8214530135338
14.0847843862606
1.91174950842591
1.91593336913993
14.0793631495646
13.2250051482068
1.69043433961997
3.10443068898344
15.337208712842
13.5831060414848
1.91022006262049
1.25922743931289
1.00128799456561
1.01041983715302
1.01817129046695
1.0008196909555
1.00030751944506
1.0001653517276
1.30022786749118
1.11919458630195
1.35729859451999
3.2176172780023
15.297987125084
13.2092302358889
1.84654323997559
2.52976599345064
13.5313944504242
13.8231919973776
2.4304609309379
2.47206703012752
14.929665496622
15.6585127351646
2.76006268870595
2.552296759095
14.7300967349483
17.1685584719284
4.02696616674573
6.29872552124626
16.4061735787732
21.8708705396068
19.6319326201778
25.0733435027652
28.8459064970511
20.9199097082819
8.65679471566443
8.15125526310316
21.0107217940519
19.7414952160748
4.89568691051724
5.97744582422036
22.1123564348857
24.782075950484
8.62716452112087
8.89707061665147
23.5316498306401
26.0070196971042
10.0167239350295
29.1687039642195
33.5296861553515
43.4680120311574
32.4679446282776
13.5293713221308
32.8248498778652
34.4756038855924
14.8065639362913
15.9709676856534
39.0587097915692
39.4440868301755
57.6531757937985
41.1131804699426
17.5164466770092
14.9899072899287
36.2258039723187
38.1869686823277
13.0360206904327
11.8960944657848
42.5460391578661
44.1945743257124
11.7010411190597
11.3350068798197
45.0372876025524
45.3480734505609
11.2926966349791
17.4198146895059
54.1898713799543
54.0371389961947
17.2442817121743
23.3487778597601
71.4080048139512
70.0012029460147
22.3447283396091
21.5128411022642
67.142665739125
62.6351748998628
20.6828988584865
18.4592650579384
57.2292065903901
50.6728577977658
18.5463513999244
20.9523587575175
59.5346250750415
47.0134656200648
56.0138147011618
37.8576465065409
15.9106372947488
13.1897854000857
36.4489004342106
40.2647741515054
12.3538319946611
11.2924186812899
38.4663745373766
36.0894593902295
11.1351954843095
8.26555055817008
30.4489839475341
27.8445242594868
7.59302761986563
5.1168046354574
3.31854458807455
1.67693156478746
1.78021234931299
2.29296508100421
4.54838090349841
23.4465123894678
22.5422460450512
4.70015706265574
4.45782470696538
24.4092622404672
26.68046282839
4.93948616091399
4.90119622794111
26.0805865386287
28.2894790401525
7.48795273408235
7.23709132979788
29.0030888855703
30.3148231614367
7.14962505763013
8.75550411792675
33.1838082406862
30.6036891722148
9.06131572674745
7.05131883600222
27.316677415335
4.74704646628105
9.4392921511364
30.5868726685354
38.1762840824206
11.7933163861358
11.1791504235387
37.0490218880744
31.2546393622665
7.74475394555418
4.8458860904263
25.4126458472595
25.6192762994625
4.79469929058473
4.82559116137738
24.6200028089178
22.5845860601837
4.69208925368533
3.97865530635283
20.6809717143262
20.6445262295803
4.0033437450153
3.88742620593736
19.4683311708137
15.507432662261
2.1224828850045
2.12948897526571
15.4929370183654
14.8127195470207
2.05691618947669
3.76002485795581
18.3120079365758
17.130090748253
3.50283156059565
3.538347943874
17.1283027304462
14.1431001972907
1.99326345541523
2.678455171675
14.6655905557593
15.2818619002808
2.75807627499823
2.94221572555156
16.0348094691783
16.9463094357197
3.51370671621443
4.74530054253139
19.4353721724013
21.5864636244401
6.78875697823062
10.0436079278503
28.8417695620368
31.7880048597596
13.5132146629108
15.0204744351223
40.820243601167
43.2491762935343
16.797196643941
16.4157118721892
42.3817905122435
47.1531374448396
20.7874842792692
20.8368208558594
49.8184932824786
47.5357686054946
18.0412675196191
19.6511468674995
52.3307889262602
61.8651970333851
85.4118762137718
76.2923463499326
27.9272096910776
30.6902040942966
78.2894068390214
71.3669401278896
28.6164751400661
23.7695339231277
68.0228493520302
85.5399010758199
55.5441847094929
49.174655169626
73.4747729218337
53.4718096498037
23.5458236744753
21.6422462903472
48.665896739875
49.2830704038208
19.1598766564471
17.669645742133
52.2891624928615
53.3300084444337
17.7642411551858
17.5227882710402
53.8435804198054
70.4460587062234
24.216178995517
24.3445293303405
70.818864807764
71.1282752295154
23.7020030715897
23.843184930679
71.1739554790396
96.3632197058737
34.5799721923323
33.8793664706248
97.0487491310496
95.7653421914928
32.5660261583758
30.6832244089496
90.7235583826623
79.0960849796489
26.2235792929252
20.5291656049015
66.0003038824993
73.8012907538344
22.9466136380901
23.349557257285
80.7363895937215
83.7863751392169
24.3312340150715
22.0946505903977
65.3057276804465
49.3642631180249
58.1638263770731
39.2756778610964
16.6796296365132
13.4823402095815
37.8995957793532
42.2947360940333
12.6092719790263
11.4100162469469
40.3309746697775
34.3251296601679
9.19883375499746
8.6490936974177
32.8792502846196
5.82419202301779
4.05715381681661
3.84289603340114
4.60352290135141
2.6592126401241
2.29883556977994
2.06314244453332
2.22858117822687
1.4512691041008
1.27246897832284
2.34862195132575
17.5293213717536
16.8677007782414
2.23262517756167
2.16981692963093
16.1810385051913
16.1472551671881
2.1532659035801
3.97515122386781
20.4910612296474
19.4159830181507
3.90511231253639
3.82424241478567
19.4295324027192
15.5312535448224
2.18301664396139
2.89738806985449
17.108736456692
18.0302876119198
4.05209965045285
6.48929412345539
23.3511811329057
25.7298548706832
7.96640120923801
7.66111687231659
25.6651692100831
30.3760544277077
8.71349650727732
11.6669641310155
35.3628585443585
40.2743107633714
11.9820991301032
16.3074225197864
48.3624187575056
56.2100527411643
18.9528606985955
29.3445945883314
83.4766237688928
96.8268533066923
67.1670053849984
65.9370529477904
95.6115747651657
90.4608917095252
30.6100543823459
36.3415770546068
105.460801970373
106.087964748804
42.1748490098571
41.2234709779648
107.557466660432
131.396910971322
46.1204535147835
53.1622053920726
147.585689220782
142.414094591465
50.86918655967
51.9915629822292
141.385972806212
143.798407599876
52.5089393176023
52.3898456343967
143.927510928451
145.019400633665
52.328764034651
52.5659738162654
145.251497293244
145.557637712942
52.7616817283627
52.0789613580146
146.106986774877
146.240172321158
51.5402381211002
50.2758198819031
148.137893815529
151.469641883016
50.3433618222347
41.4340951402401
131.416948074426
96.5423799839783
30.6202165143731
32.1099393869008
108.31289904416
113.731680232032
33.8266044399532
36.1244028890533
120.507691674781
86.6127556646842
24.7242413282594
25.9866823928142
90.2426268383573
69.8996854694482
23.1954122378473
17.3754680862232
40.7938253657516
61.4847510496923
51.7821075993231
54.4741453117381
65.6013550649557
42.8251669653164
17.8981891917431
14.2890790571519
41.4653105679031
39.4149380959552
13.7622851700808
12.9692463057242
44.394490550533
42.286960524136
11.591072421485
9.43660633827363
36.3331139466569
36.5976614761306
10.6975576662447
10.344247572286
33.8866183983248
5.72115363745658
6.36121395938398
4.98215593525126
2.31395123798329
2.48114806260892
2.20180584751053
4.32147313089952
24.3355545517945
23.2235418575388
4.20937412156543
4.13156048963082
21.953227767582
1.9144119354552
1.16198738597896
1.14770068555826
2.21396682514623
16.7715951959454
21.5703765800025
4.0231274310095
4.03204632436583
21.7662303023908
19.7543338442656
3.56330353345848
4.47944274662247
23.1043462203736
28.0427441760241
6.95377023452881
8.82400369855069
33.1647928399273
33.8774152027331
10.5075478190155
9.04018398430092
31.362222469761
33.1523703626994
9.31355868076587
9.79462188994316
35.5301380040456
43.0268575525075
12.533538669341
17.3009075039988
52.3141450602291
55.2909038872405
19.3624668309082
19.5949689094548
57.3790543260949
67.0145201811476
97.1079134442211
95.2688179622426
31.6823736115805
37.9084693292025
113.882489811166
127.134892079211
48.1589237615549
53.8963110439503
146.721697291227
192.673685616213
59.675650797637
65.8930238056332
258.227796792102
295.103634402532
66.8622840255743
70.6864837596918
283.722043054652
277.2435857817
68.412910983141
70.4921700601754
277.803974474516
276.99461394436
70.9440877999001
73.6704314891115
280.321769225249
284.993412571936
72.8780819729359
72.531470444088
286.322870776001
286.234475359737
70.9617806273685
73.7482362929971
287.305865623122
289.91348471032
72.9027215590394
71.7514614841191
290.097865291346
290.150012643354
72.7002743375737
73.3851962612389
289.766981642154
289.265155803956
74.7139452340847
72.1016998648105
288.061686900492
288.431753721709
72.8360920945247
72.4667620253054
286.62246778595
284.164821266878
73.0865408348358
70.4419736314303
281.262346622192
282.266576678085
69.6596681884836
67.0900896048101
281.873817626004
287.211203313199
67.8276778480833
63.760126222453
298.843037033291
259.127691975218
62.4502465018836
61.995074218098
247.734148052065
238.770978704336
66.3076764526312
64.9481388612062
232.990324242581
230.225118288109
67.3507025259271
67.033913695989
227.439577676678
227.758843691134
69.7299947963854
68.7147315743605
228.150732275769
228.376892125167
69.6243494801612
68.442793736068
227.497428919883
227.751957077325
70.3205046039785
69.3379746183613
227.563979175142
227.721350948571
68.911270632439
68.2658295858751
227.470009932848
227.231161162855
68.8007418098335
69.2232214207089
225.632242235322
225.170497627209
67.6385450476772
69.2601480077846
225.510765763882
224.94546228441
69.0301896213809
69.8425712668588
221.689123762903
220.501909131774
67.1681740398482
67.7212956610389
222.220408143074
224.4218674558
65.7283085968167
68.8746728720017
230.974241930947
242.157671716054
65.1557016128221
66.3914723657729
36.5752319452707
23.9398990024704
13.29841601622
10.5585613903252
7.12113092026749
6.01111776180612
3.57311968096373
2.80093640854493
2.46874171449525
1.85855630030133
1.80228657467246
4.13574368600408
22.6569844627402
23.3843287432986
4.32673919982117
4.54516757833491
24.94938372908
25.1188462998978
5.06167666270034
6.76684803619413
32.4938991031811
30.9133949923394
6.54148280235485
9.70633178687832
38.643839613157
39.9234915126593
11.5086205146364
9.66676882088227
34.4531431614448
36.6067353486355
10.007006749959
10.3534889461577
37.3057552098407
45.2934704790151
13.4489469766529
19.0723862648519
57.7642086025298
62.8683340752467
21.216129615277
34.9883192238427
75.5391811020299
105.863655733027
95.3249139314344
123.215844259416
39.7015870597511
50.1066448485301
144.620982923321
191.964882917597
56.9156906269703
72.4698981887534
290.987974503545
333.518586679473
73.3971994857495
73.9652037117749
314.917796913523
298.787464241159
71.3038860287281
77.12959191479
292.086602375903
288.667098070963
77.9740224660987
82.2316994504159
294.694353250163
299.829811554725
87.0178312639296
92.3393568756032
305.730231441173
309.690172583418
95.2506356735019
98.8622165454473
310.510769989653
310.96672487309
101.356451293025
108.640053087462
312.924939021587
316.486128041126
107.315201415459
106.323913042397
316.2196305026
315.786501117453
108.063105806886
106.362277893861
315.365284147863
314.071094578302
106.483030524859
100.012094472444
312.255293434555
311.973590027362
95.2614565150127
90.9105176847106
309.707722994317
305.111863063282
87.7904884472125
83.4398162416098
297.852756480419
290.384566341547
79.0825419001986
74.3763472179951
285.154579461632
294.751016038402
72.8130955284123
67.9496552731267
311.17411523812
256.588937944357
59.3015077607701
57.6993092680535
251.845014291357
165.967269137119
44.0754196223942
47.2827275617441
174.477401704079
189.647022571022
50.5201045624798
53.9276288320209
212.496617870282
129.257779198196
38.4032060509322
40.632346088899
140.926580497721
93.5863843984474
26.2774188721873
27.330668408916
98.4935405493325
75.2053579716668
24.0936134208232
24.6079713594013
80.7040615357727
59.0906617078478
73.2854768950308
48.9245423381877
21.0568449253213
17.1512963077963
48.0446704841966
51.6548983735564
16.1185438845072
13.4817236998496
48.5274596765651
44.4207850884693
11.8031679034821
9.65084209225942
38.1639853155874
38.5775649284205
10.7730902539821
12.2295462157933
45.7241721003055
43.2677571454722
12.254158181049
11.3733192246809
42.1428734368904
33.3178972382006
7.09928112597645
7.11452748471783
34.2657284039936
28.4590731971572
5.77115057293361
6.21803395803576
28.4570014247319
25.6360766577198
4.48402242055565
2.57627163632722
18.8751171754144
18.1428735289709
2.48990337582569
2.50547209850945
17.9956841935776
17.3751211641658
2.34163589500177
1.27911283908141
1.47431796912374
2.00333543170757
4.31536769192687
23.7983567589233
25.3020615691329
4.58823514043167
6.27788153482552
28.1432615238237
28.3050769938049
6.16193954981156
6.64555901498413
34.3885889135152
33.4315135445479
6.50622394161408
10.1151292317003
43.6772373051834
41.6939977343757
9.94516383031543
11.748060238659
43.0871046375351
45.4259042834036
11.8706491011592
10.2938652482836
38.2789554501976
38.9185330314104
10.8272978088036
14.3197055244983
47.6417981753605
62.7652429633708
20.1229557028092
22.11939125557
71.3769615424618
90.4910790354037
125.807163405257
101.561019964749
37.2965385069761
42.8299686423625
144.561635886134
173.32168878582
54.3107139346973
63.1311430009683
237.039674007386
343.564162583306
73.6333789040094
93.4126962298533
452.251170666373
422.275252539655
96.0115448807373
106.290210035203
424.970622368219
504.367274381888
133.458501874881
169.88548519809
641.609191071611
799.843954972486
201.9391717216
215.606869475423
845.493105961093
859.959043100984
225.876693958814
240.991129920752
863.295536826691
867.268362205453
262.749450277417
284.784619680258
865.444955116433
863.901282881281
304.494819118193
318.99739881102
857.986593877103
856.410026821842
331.740877890461
340.568754363454
850.330842735654
851.236722601639
349.66143282992
354.893152143059
848.096602014173
852.270082153702
362.061092556658
369.959841357357
852.730656771589
858.520665697308
377.989842094852
376.988001744056
867.075811900559
870.045141715034
371.553076509942
368.964164967771
866.03351738322
864.265495995288
376.429624243474
380.401681509083
863.951589735807
862.000878395903
373.269790126882
371.943948220793
865.903161416003
862.539792126558
370.217345753211
369.313576215508
865.057529851177
861.595247944148
361.069311613323
352.595300946938
863.254636362829
861.307845524896
342.817004329717
332.701589286373
866.462841375062
867.562403183569
318.817435933097
303.293152229541
874.887651698867
877.359600222445
283.056061464659
262.677440249542
881.691531553613
879.670963619979
242.598410618292
228.624394460207
876.546345538614
860.338091789973
218.184695860649
203.149948709876
810.593371611022
646.192053279849
170.937877273708
136.163416883535
518.08192915024
458.930630169563
111.237782529474
93.6853766368166
458.999584563174
325.53688199994
67.2953528153883
63.2653968439317
298.850179639431
281.399830162282
61.7133844141016
58.9835390986023
265.333242848206
335.546425500408
71.253926937014
77.9917999855281
367.137120600645
408.032419522754
84.1556986239126
100.099125569032
400.158180518579
434.939437326829
121.90281133959
161.110385165981
586.859577648005
704.683084517469
194.613648259347
207.494730383693
741.63935358096
756.015647183881
216.694021190792
224.605965852384
762.11560761558
768.270543938447
239.78215003704
255.719956019534
765.990230738649
767.912983968357
273.502052428099
287.67447161391
762.108262352985
764.260952446315
300.966608952865
310.660533304708
759.470753249363
763.148872234099
320.195647661799
328.021121859547
761.661326577954
765.685736829075
336.152213584929
337.086707814532
764.40030809894
767.313182289109
339.726858035048
340.752269759794
764.162522870467
766.121664561231
347.226786560805
343.316379625264
766.650342123004
767.307495763522
337.344009305902
339.714655367254
770.478397873501
768.683368016455
343.487323102281
344.388013971336
760.739297382666
756.248989515347
337.187555978381
329.520535370821
755.237491149164
751.054395538257
322.516231174499
317.616015533056
753.995114606524
751.158611438457
308.442858726349
300.277165151068
756.694241367087
755.007856359984
288.08055309536
274.784161877085
759.364605207113
756.952477455033
257.527089486099
239.547729363144
756.836656612594
749.526649356576
222.730994223964
213.842201656378
743.642135880755
730.245482410818
205.040323789733
192.943210916422
696.100761452313
582.135338736912
159.966531361194
118.477598732318
425.977708235801
482.763752164542
148.160874195265
174.327832429708
546.378146507608
567.398405987373
184.61133055673
192.556832761928
578.287013068744
582.332660392215
199.673138088023
212.121709696107
589.185970135055
589.400130328296
226.136749599611
237.89947879589
594.597905281022
591.8525729353
248.751467998872
258.679454185114
595.714518468674
591.143797835242
265.828738938366
274.173294662013
594.765732549024
592.444306080943
278.720952882042
284.760033896133
595.822430172957
597.226748133565
292.247747833076
298.12245134357
599.97213433493
606.563243565321
297.260084726432
295.357613373686
607.590881353032
605.356502118531
293.258987484652
297.06317651109
605.209800329822
604.604609955894
300.694544833208
295.873921998845
603.230844475699
605.426529890505
295.11630786134
291.646722528601
603.168816301667
603.445610064259
290.904380157886
283.557839214715
599.908148639031
600.991950798231
276.44690240588
268.233092498442
596.727148966231
600.735169335583
259.437640067667
248.619524883426
596.378237164486
600.501470779242
237.165071657162
224.736392525952
595.145719571066
597.221255770942
212.758619411399
201.134878265575
590.660185036165
586.360102232891
195.124782459733
186.936942381507
575.49792050913
553.59475170176
176.326991286847
149.419124350167
487.70620697851
400.207327576303
127.710479296049
99.8971414533717
355.223681780577
353.72268260568
88.4043762438541
79.0899586795663
319.193667842619
311.032990302601
82.9777968799925
90.566958705508
321.755713932088
334.087667441881
96.7222107131467
141.388752656817
426.471679917952
436.120280521666
152.723329132813
170.455647418998
438.751178005344
439.486197097366
189.465429533041
205.8954757258
439.543916439908
441.64203293889
219.17167439713
224.318124089905
443.595577116329
443.594328759854
228.603400876269
226.284847268611
444.568815291908
445.629670132646
227.141042866621
226.464997868806
439.66675308355
436.439581232284
214.500458614517
203.846603804718
435.667001255805
436.120956169395
189.527178133872
171.849284964352
434.527573073352
429.800966844361
152.706053649427
139.736594120158
420.266556362244
396.035864444369
125.65190862443
97.6827392868948
351.487691425933
332.911042328979
82.6397656151582
94.6307490085401
372.402667433941
375.975627823675
87.7429986476777
84.7507271287712
403.148696467924
315.685452291089
70.6656222481716
60.0973271518527
208.493335515078
298.662379785617
70.715660135641
79.4079974201242
365.474367214142
341.507525569481
80.2585123480533
76.0738383648119
321.628913653711
309.994214758347
75.6044648582361
83.024388506826
313.655194387937
319.5548940873
89.0210420744109
95.2648913409312
329.369213417472
335.596784530918
103.429605567262
115.347739273075
338.845104878245
339.797537222673
125.773513825197
134.89323279604
339.150867711112
339.087180525632
141.762970510113
151.353845973688
341.225658648126
344.95457627984
151.289308243729
150.601858778556
344.518174994153
343.950154960558
152.285186658093
149.174518768824
343.561257356195
342.686947401552
146.433825271354
136.634274883032
341.51174172281
342.449393696837
125.707526349356
113.853421620645
342.489192952028
341.216074505286
103.41536538489
100.003119473924
84.4049617634611
80.5618847321206
75.875952716151
72.9380754851004
63.020053391884
59.6766175290406
55.5635581936627
53.4126554999571
44.0017746123073
41.9577355355952
38.1419099015406
36.7259588290741
34.069802679647
32.3829362749194
30.5879618716986
29.2877081164612
27.1782379586026
25.4709159049541
23.5536724713263
21.9166463617272
20.1260369655784
18.3410294420319
16.3076197407356
14.6941832403411
10.2767090333883
11.5553084337547
9.23538045726904
5.88520928813578
2.8658464695338
2.0319926677785
1.42538034142112
1.53998747269695
1.62312284638354
2.63618332258891
18.7888089355632
20.7416750416643
3.89644095675707
6.81266287537177
28.9048984866541
37.552913076208
10.8097442585043
8.29721962963054
36.1597922372259
36.9701064368571
7.0024110260715
6.57107140223807
35.3627493648391
47.4442164493919
10.1398633233283
10.2162026948983
45.6471872229186
47.7108633030853
11.9670403157081
11.3673733455086
40.9905865859411
42.1373443703508
12.2111210531769
15.0315416663853
51.2870427785628
67.7521017661803
20.8213458922318
22.7220423108881
77.3083469159444
100.152370512918
144.752232882788
114.972238241266
39.0437143501985
45.169326111123
172.71816088484
223.768816032088
58.5485135492298
69.3358499296318
362.214756724875
552.847488458704
84.8152975100663
139.867915109545
826.242494643167
775.58449704441
141.709943386357
170.651127333965
836.448226424584
1113.40431548301
216.598665434812
295.661622660851
1600.95592883594
2127.48105564959
401.670102974439
436.669389747552
2237.21690791488
2240.30015896638
436.67307380047
443.90797237662
2196.19111617215
2125.0361504547
461.071741988603
481.13022470811
2079.56750861642
2110.68990152604
471.3935897982
442.352992552924
2159.82115482671
2194.57991136336
415.857895311889
408.321705720645
2219.37157920695
2225.58371939532
405.034318121295
408.881765525681
2230.89095159109
2233.17482779803
408.418879793153
411.063580961788
2225.74997307131
2241.24164295302
417.16209038907
416.087635653657
2247.03402207589
2274.08551109803
416.492727462957
412.577129566995
2264.89541327128
2243.94282771182
413.110077607939
416.92266882605
2246.08573260993
2247.38607450155
413.780459370511
415.567899672995
2257.64249050765
2243.67808415364
415.375076615569
415.383938409238
2253.98520917867
2257.39595631229
413.77000646423
409.877057921769
2253.04522086843
2245.35195115635
411.957675891208
418.738158383342
2219.94775136413
2185.07078083067
444.471918660734
475.379725574198
2140.94461220297
2115.19929160928
485.826446773717
468.570022041756
2165.79385502142
2239.38061619913
456.692666323507
454.931400398308
2283.69958619305
2274.84372456811
455.327842856662
411.985548784151
2151.60301495547
1607.59750824984
298.542330632493
217.956634707913
1147.17935485504
908.197238525663
169.294872860429
144.620820373912
843.062197073275
524.333955909014
83.1737886484751
76.7857990799973
448.780977722778
401.025560773955
74.6327869401401
69.4649188532925
353.857326411536
529.256293986313
101.374862336024
114.295993772323
620.592580236585
726.723714947145
125.737916514098
150.195239206781
765.989223514116
942.940518140148