/*--------------------------------*- C++ -*----------------------------------*\
| =========                 |                                                 |
| \\      /  F ield         | OpenFOAM: The Open Source CFD Toolbox           |
|  \\    /   O peration     | Version:  2312                                  |
|   \\  /    A nd           | Website:  www.openfoam.com                      |
|    \\/     M anipulation  |                                                 |
\*---------------------------------------------------------------------------*/
FoamFile
{
    version     2.0;
    format      ascii;
    arch        "LSB;label=32;scalar=64";
    class       volScalarField;
    location    "1200";
    object      p;
}
// * * * * * * * * * * * * * * * * * * * * * * * * * * * * * * * * * * * * * //

dimensions      [0 2 -2 0 0 0 0];

internalField   nonuniform List<scalar> 
162506
(
83410.7246014538
83411.3691879988
83411.0529764002
83404.8018586017
83399.0519594143
83381.7880841885
83401.5806018966
83401.267419724
83379.8447936366
83456.1980406094
83459.5032279308
83430.8982209516
83423.4153623315
83417.416564138
83418.2706493227
83419.0833318441
83419.2670962189
83416.365292029
83417.9814435906
83420.841282328
83429.1195517553
83427.4457567908
83415.9242315921
83430.8193998234
83443.7495750565
83457.8241007181
83461.9372414728
83414.582366925
83414.460467642
83415.6621154227
83415.3813788503
83414.4716528729
83414.1348383379
83413.4266363814
83413.5043165214
83414.2493570125
83414.4534411084
83414.2170559173
83414.0705772645
83413.1425852949
83413.1621532366
83411.9950932392
83411.9396353938
83410.6691956204
83411.5755230972
83410.5144244761
83409.0963485216
83406.9470566698
83395.2539359539
83402.9800081092
83408.9031420866
83412.6095615101
83409.8569310275
83407.7339757955
83412.1340752188
83409.7494122089
83407.1024506952
83395.7204131324
83404.928160263
83407.3971708518
83407.0804483774
83398.4766902159
83404.9109756377
83413.9969431184
83420.8174878855
83433.5280623004
83414.3430875098
83408.7088804727
83421.6599757928
83413.9335094726
83411.0776897116
83412.7614330781
83414.0323131576
83416.6700690779
83414.5776800305
83409.17927089
83407.3941073726
83409.3438116556
83409.0614958565
83409.0354490642
83407.2798980565
83409.3210482549
83409.3162051472
83411.0979100165
83415.7972554672
83405.6668449395
83405.5906080679
83412.7063789495
83409.6727322454
83407.9393398434
83409.2390588183
83409.7331191625
83410.8081620127
83410.435063632
83412.1438537045
83412.5572895616
83412.1651999872
83412.0460177419
83412.3900370006
83412.4945883863
83413.8299919785
83413.7712517497
83414.3989063605
83414.5328514237
83414.7459979607
83414.5410617454
83416.2308309398
83416.4909105699
83415.3658702947
83415.4680026503
83413.0481755772
83413.072114915
83413.5452275695
83413.5114426488
83413.4027786241
83413.8995806297
83413.396872024
83412.8865137047
83414.6174767917
83415.0811477135
83413.0388084567
83412.5304323145
83410.7938881714
83411.8435960933
83412.5203713033
83411.8268677134
83411.7519947662
83409.5149755528
83410.3081758531
83412.1804730118
83411.1801913523
83409.6327499438
83413.7684067975
83409.7876756136
83405.0641319948
83404.9279419385
83406.3786992177
83408.6500785377
83407.4512289898
83406.3340747053
83409.604630808
83409.4202705286
83408.7080881482
83407.8910552764
83408.1230294886
83408.9218943248
83409.1974037748
83409.0268891788
83409.814395978
83409.8002722433
83409.1715566241
83408.0886928703
83409.209562997
83409.3128311561
83406.6445544236
83408.0522895583
83409.0684428659
83402.801190017
83405.17841355
83408.8548390597
83408.1686160867
83407.6459821142
83409.3466884521
83409.4197594323
83410.7417270085
83410.5835078352
83410.874201039
83411.0283379555
83411.7290351037
83411.3747252796
83413.1773037346
83413.5409780717
83415.3794202623
83415.0979782613
83418.7887256781
83419.629192338
83420.3552806928
83420.5568832502
83417.7108530253
83419.085641168
83412.6908825248
83412.3825561017
83412.6139868054
83411.2252529753
83412.2598680153
83413.1175911727
83415.1419133965
83414.5747458562
83415.3279753872
83415.8016330866
83419.3678594117
83419.6556321096
83418.4857208831
83418.3397796811
83415.834163116
83415.6425745573
83420.4314198158
83420.4492094834
83413.8885924322
83413.2134646446
83411.4057576743
83412.7849638853
83409.4477944313
83407.7889731654
83409.3782377275
83411.9410301089
83414.5517405347
83413.5081019005
83416.7702253172
83418.6770133937
83428.3798029017
83427.7989497452
83427.9989029911
83428.5903640877
83432.6321220803
83432.4528840814
83418.1902509731
83419.3749669332
83416.9310571769
83416.7553131981
83419.1366686282
83415.8344524806
83416.2104930006
83430.6540096995
83400.82258196
83411.682986268
83411.1271067127
83413.252783285
83403.3539233815
83396.5891751963
83379.6837658226
83403.9299215036
83407.5261545453
83395.8462789573
83400.4339554939
83406.9739436635
83401.8988932934
83387.3126369106
83375.0132216196
83395.107594709
83398.8121963347
83398.1678753407
83403.3318831427
83404.5367493785
83403.1710749597
83401.6175319954
83405.5845052794
83406.608731179
83406.2233856824
83405.9667037888
83408.8030339438
83408.4324931366
83408.5435725833
83408.8462264954
83409.27241936
83408.6808709414
83410.2894194327
83411.2924548965
83410.6943646555
83410.1791804762
83409.5070116452
83409.0460635431
83409.75867626
83409.9099453182
83407.6691907027
83404.6505029212
83408.6543725737
83408.199175906
83409.6017576151
83409.5137837056
83409.2025968005
83409.6057242732
83408.4030484972
83407.0238453481
83402.6602044391
83409.3010758253
83414.372606982
83410.7533652867
83409.1046275124
83407.2053807169
83409.6447547686
83410.4648737316
83410.56857874
83408.331167466
83410.1885376073
83410.5402764635
83412.7963376899
83415.6768204518
83424.267101133
83411.2398596341
83407.4449897852
83417.7527862799
83412.573497088
83410.6928151867
83416.2782694681
83415.7421245295
83422.6861824658
83436.057037611
83462.0740461237
83432.8917269746
83425.2288972536
83457.577355653
83381.0903699693
83403.3861805474
83403.8620786734
83407.2751929366
83402.2685475445
83384.0017861121
83458.9983742422
83458.1377669317
83431.0415750596
83422.2358017338
83417.7525973163
83428.9561100738
83444.2624201254
83432.1901862597
83399.019692552
83405.7951572055
83411.2163834282
83409.3948996616
83407.3549930347
83398.5675073366
83410.5206222239
83413.0140070418
83414.9829924132
83415.2388358856
83412.4836158671
83411.1954405211
83414.5515498282
83414.7584161707
83416.5387705623
83416.2614302359
83416.1129625465
83416.5660778285
83418.5749247188
83418.7395866182
83426.6101518725
83426.2248697211
83428.8816310072
83429.2430760641
83426.6618969728
83426.316364579
83441.2334223225
83441.5938588748
83459.429558197
83459.3863346301
83477.1983704943
83476.8056924197
83452.2671142038
83452.8579401016
83462.6669824079
83462.0504153657
83435.1248241096
83436.9755398789
83419.4155948964
83418.5768167151
83414.5974845894
83426.203065614
83418.222226889
83413.88236993
83393.9634617869
83395.4274720051
83398.140480148
83394.0891026134
83395.2758993562
83407.3557129316
83440.4094180146
83419.2631492939
83423.7070568078
83449.1534755864
83436.7188021002
83419.2962019253
83402.1111322028
83390.3334975052
83434.699161408
83407.2472634659
83394.5440952505
83395.0645569823
83382.679927865
83387.0271858611
83395.898615992
83392.9799800711
83393.1869604456
83395.3670784094
83402.3894108341
83401.3136378488
83400.7127993955
83401.0643221016
83405.5491541816
83405.5027698028
83405.4597638232
83405.4132393159
83405.8022957762
83405.4894404504
83408.8353843078
83408.6783300837
83408.972318428
83409.0375534313
83411.6829872448
83410.6786723273
83411.3152328556
83412.5977481807
83410.9081284684
83410.3314004565
83410.0382396112
83409.9184337946
83410.1664538706
83410.5544140544
83410.402149094
83409.9967049587
83410.4980493761
83410.5425240974
83410.5129463903
83410.6340823093
83410.9991143435
83410.7828986777
83410.5820111175
83410.792974241
83410.9926313966
83409.8572008915
83409.3146845039
83409.6403089595
83412.6696126782
83413.0810870321
83411.3278151275
83412.1414840691
83413.4917670409
83411.1696642365
83412.1837128035
83412.7662756892
83416.8782212171
83417.8794908365
83416.3512343187
83420.3490490927
83398.9485087056
83410.6686527201
83417.2087336396
83413.1137267588
83419.3440241431
83421.1708219891
83423.8815664533
83421.9311858423
83428.9883694263
83430.4582804888
83429.3145319654
83429.0124843641
83423.2972183523
83425.4359411662
83422.0304518979
83420.1658669063
83394.0404758275
83409.6062309453
83421.1223552368
83433.7144306208
83431.6288586545
83411.9059517717
83417.8356068481
83436.1473455363
83443.6367518069
83449.5701542231
83435.1364041766
83438.1561188864
83444.5829821732
83441.1719923266
83445.1420754076
83446.7205866895
83464.2386795171
83463.639626804
83485.4503957959
83485.9100134799
83503.8712089855
83503.5571228268
83508.0485104192
83508.3761130295
83497.8985091745
83497.4792087614
83537.2817914059
83535.2344244997
83500.4654169082
83501.0323432116
83505.7561226358
83506.4861727528
83480.4875620735
83479.1900542504
83451.7736568578
83453.2641637664
83437.8605778122
83436.6805179799
83418.1288237079
83417.6863540576
83403.6188650759
83403.8777446393
83372.8957828395
83372.7005323637
83364.2560800835
83365.5005728103
83364.4915986426
83363.6457642093
83362.8138660888
83365.9101867442
83364.1234117046
83362.0628702396
83359.1960090808
83357.5952805512
83389.0235326773
83388.0447534505
83380.1928322016
83375.5705945014
83405.6489801158
83403.3995417425
83405.9476200104
83397.4100560664
83404.5533192263
83387.7983724752
83366.4283465059
83370.0079713587
83354.4220559337
83392.0760149766
83366.0314011254
83356.2147107204
83425.7629328184
83420.707800181
83365.2868836922
83370.6906855749
83393.6840068282
83393.4076044897
83369.580202888
83362.3675485976
83407.7090795416
83380.6901388027
83351.3002620355
83359.392385937
83383.0278405818
83374.5254675908
83367.3243246045
83368.589742613
83352.5704825142
83367.5965058855
83360.8597858834
83354.3296176567
83353.1711058239
83340.315113713
83338.6156070951
83349.2068704787
83323.7155197595
83330.5400588742
83313.0102016545
83292.8536383446
83318.3252407431
83319.8947169079
83358.392463647
83358.3297504792
83383.4147008984
83381.6714032048
83393.6910988681
83393.277682338
83392.6542075606
83393.1854232278
83400.8017663046
83400.4934642373
83400.7564812548
83401.4332078164
83402.1484755807
83401.3886494096
83405.8969313001
83406.280921897
83406.810805805
83406.7933943037
83409.917433851
83409.52641149
83410.0644202299
83410.2480324888
83411.2338143076
83410.7240017488
83411.6544140704
83410.9916877611
83409.8901584872
83410.8360125202
83409.1242774564
83408.0793617174
83410.6029300712
83411.369838593
83408.3385049764
83407.689122684
83385.2681410651
83406.9747093047
83422.0425106802
83406.9746677942
83400.9697214834
83426.9306595342
83454.0182377956
83476.3936584846
83477.7765156344
83455.4909266215
83452.4442477616
83475.2742842269
83467.9565710256
83448.4729984069
83447.5726143744
83463.7491689256
83461.7049499622
83444.3546472638
83430.4990726005
83442.0530524668
83432.4872130856
83432.9893994364
83430.5558899908
83430.6218031617
83433.4311020711
83431.6548059381
83440.4785395874
83441.3105119989
83444.0670470925
83441.8515637388
83449.444483956
83459.0783561151
83458.1052847004
83454.648428328
83450.9815930857
83449.8109555323
83454.7399669401
83456.2254746073
83482.9793352705
83480.7661279799
83515.4616302996
83515.1077520587
83545.7795010844
83547.9346610479
83556.5890133221
83553.7979093819
83610.974419696
83612.3063440014
83596.9228429759
83595.9611453557
83572.0048967283
83572.759551044
83544.6625177231
83544.7475275192
83560.581145785
83559.5927361131
83513.0161413657
83513.7949612791
83474.9180725028
83473.627641641
83444.3299024387
83444.0408730834
83424.4373210094
83424.9051231913
83408.7112347106
83408.7243182168
83391.2934483211
83391.3147957103
83370.7780978107
83370.4878242828
83344.4676867184
83344.6218046198
83334.248895804
83333.8472760022
83333.3369550058
83334.7480227838
83334.0294023074
83333.204587277
83333.9530331482
83336.3411954666
83337.3639955957
83335.7638734263
83336.8006488758
83336.5664636579
83334.3111709193
83338.1388318675
83357.6724131192
83350.4038372685
83363.3445202206
83368.0615457123
83378.0668072534
83371.9282630082
83363.8170266333
83352.8558976262
83366.0353316574
83379.3076709645
83379.9242914086
83365.4413315349
83359.9019043564
83358.6547461362
83379.5042459101
83381.0983318663
83394.0480900997
83392.8075876385
83393.5991583787
83395.0384314164
83395.6579127568
83394.7676873189
83402.3577685693
83402.7477502772
83404.0699388965
83403.686924498
83406.1696391275
83406.8232013854
83401.5889091042
83400.2287110527
83402.7949468758
83404.3641665924
83395.8410670347
83388.576117559
83396.8023516156
83405.378869937
83423.5963706338
83446.1906976404
83418.6295717
83424.5267843421
83444.3138026009
83457.6766813785
83421.435901541
83416.8985069191
83423.4015575813
83433.2852807798
83416.2051243996
83417.2863148795
83414.2689635899
83414.0970412306
83413.8229088716
83412.6736114821
83394.4429413021
83395.2759602163
83396.3897877476
83396.5966872732
83405.7280921271
83404.9040746662
83414.4158984852
83414.8133768608
83431.8989804746
83431.3313593411
83454.9041574158
83455.7992594496
83494.3547246741
83495.3720106917
83551.7554768407
83549.5426732512
83609.8459533628
83610.1400408072
83670.2013924574
83671.6413356456
83709.3558061589
83706.35718274
83725.3167359856
83728.438432045
83721.8031991599
83718.8601439193
83684.6900221782
83687.2843243052
83637.9238525886
83637.5322971358
83571.1752770936
83569.5957488517
83510.0901282759
83511.9764172435
83460.3303467244
83460.3286415669
83426.7728344115
83425.9058963649
83405.493268542
83406.4029488967
83381.6727615301
83380.9694726317
83347.2489896856
83347.4163561033
83310.6514114783
83311.5367757538
83315.8611451265
83315.6855999284
83290.4976118577
83290.0986248926
83293.6047751412
83294.3873320101
83303.1324366061
83307.0343835777
83306.2625483596
83302.4161292397
83276.2982336336
83282.1134337665
83284.8259676564
83278.3122436601
83282.8428212144
83288.960921958
83310.6293770019
83306.3957676572
83310.329705603
83314.3309486924
83319.0891403712
83314.16875419
83316.9803060174
83326.7854052147
83325.3761862448
83316.4800435021
83338.0562528833
83338.1654757992
83334.0542905604
83336.810511178
83334.196772974
83330.0728319831
83320.8858890031
83322.5690934819
83325.1606673003
83326.7412333421
83357.7943158188
83358.0089911519
83379.9467169439
83379.4345505781
83384.2222311945
83387.3496082214
83389.5376828537
83382.3585924116
83380.4668824926
83381.6504171494
83382.7652190235
83384.6670489253
83383.42649456
83388.0360086106
83391.3385417041
83372.2344159405
83374.3086921116
83388.4673723671
83384.3560164741
83389.3411230786
83391.4702270931
83398.5156810262
83393.0716081657
83399.3945884717
83399.2359114618
83404.0202121188
83407.0748516005
83378.9003474647
83383.7110373242
83384.4869142032
83381.1360615981
83381.4022308972
83383.8906994833
83399.5388949771
83397.7583978287
83376.3315948756
83371.9511568501
83373.3215326826
83374.0701715454
83374.4035378554
83373.9349324782
83381.2608744758
83381.0292549038
83387.4252807793
83388.129626589
83401.3380763131
83400.9575391139
83425.926221466
83425.6477531588
83444.1018363478
83440.6745114842
83448.6902327613
83451.6846267311
83476.5906102764
83475.1683525732
83504.2229542629
83505.5768906243
83539.7530635127
83538.8176394218
83583.8278631197
83585.011101596
83628.9807048123
83628.3007141046
83670.1710306541
83671.4718990649
83708.6801534468
83707.7832220861
83738.2732033281
83739.4940081146
83756.1933968993
83756.1144942377
83769.0826425846
83769.2061099305
83775.9446384828
83775.5066281234
83770.1536247223
83770.581104106
83754.7907894051
83754.1277655613
83731.4166916569
83731.8350129765
83704.1518354792
83702.9575523673
83664.1231406037
83664.8319225172
83620.8870155895
83619.7535601512
83574.1577112914
83575.2846936184
83532.219381896
83531.2644983709
83491.0298581245
83491.8645411555
83462.2337577544
83460.8994349506
83438.940813799
83440.0651442318
83418.541387613
83416.245319631
83408.1608648103
83411.0103056852
83417.9998548609
83416.5529450621
83456.404166351
83456.355447006
83475.6854361648
83475.756373683
83510.2341206714
83509.8322476608
83541.201944182
83542.0543837126
83586.4847584437
83586.8514454348
83620.7260648842
83621.4039351495
83667.7495181131
83668.1041401078
83695.2474141935
83694.8739992018
83720.7554240901
83722.3388805536
83739.5369920343
83739.0587172277
83758.4028700195
83760.1999780993
83763.8475239163
83762.3908108007
83751.5179170926
83752.7938486995
83743.0207032554
83740.5366906357
83727.5896671673
83728.2213350403
83707.0366680018
83706.314479265
83665.9599687568
83665.3919879381
83634.7203292624
83634.653487559
83590.4211067939
83589.4485761173
83555.9252602608
83556.3669404457
83517.2273907671
83517.4468213174
83492.7541291259
83492.0833493222
83449.1830089741
83452.0883653495
83450.329272573
83454.7583371145
83452.3414740229
83451.0274930786
83445.9503885483
83431.8748686463
83410.6775613723
83386.4173680561
83371.603398735
83369.053620536
83377.6069232991
83366.2774601569
83361.4037085475
83360.8631172892
83363.3453754935
83363.535184603
83323.9883624933
83326.4748947422
83324.265944327
83322.9204044228
83333.5940232341
83328.0951766992
83369.2720423243
83363.4981587999
83367.7177125829
83372.2970085896
83373.5548095342
83369.5874424115
83374.469046093
83379.8490808862
83340.6536172828
83336.5592280163
83337.9298873606
83342.6204206234
83342.3254087385
83338.9311722395
83334.2353955813
83336.6032364239
83354.7236926041
83350.2317415299
83347.2229384097
83348.9679151746
83348.1759139811
83346.8643881484
83350.4816265222
83350.6205827005
83352.2415709499
83351.0320968965
83356.9735439357
83358.0511387829
83364.8599081959
83361.6065589519
83364.500935669
83367.2905786747
83381.6483236917
83380.9883882525
83397.2999867245
83397.0845493032
83417.1587454371
83416.8941325333
83444.586634913
83446.1322308076
83484.7603878931
83482.9720648833
83537.221878674
83540.4342674756
83597.4808253841
83593.3728964264
83647.0370966867
83652.1097684484
83694.5915222341
83689.0993370626
83723.7487172125
83729.4649723416
83749.0798410719
83743.1970182046
83756.7196003969
83762.5065651589
83765.6314761673
83759.9547419026
83754.4791677384
83760.0861837842
83747.8140209399
83742.1265728864
83716.6279195453
83722.4752219793
83689.5092371392
83683.9469935529
83637.0880080636
83641.8996974354
83587.2862027925
83583.3904458434
83524.5661883247
83527.0571392464
83474.6635522608
83473.0587323243
83431.5804234774
83432.2473038593
83405.7088931686
83405.1606832884
83387.4196658444
83387.4880045075
83375.3491123335
83375.2580843314
83369.0505679439
83370.8385571348
83398.5514850922
83395.4640705354
83394.6665805448
83396.2242292238
83348.8873398058
83347.7069110529
83298.9057948198
83296.9322060247
83248.3678830581
83252.0013393456
83277.0386946214
83275.6137653186
83248.7446291298
83249.8025873972
83265.388760197
83266.0772336336
83252.3019093167
83250.5218408204
83262.6715990179
83264.2939825182
83249.6753970868
83247.92277582
83260.4174382687
83265.9833397044
83269.577863631
83263.0114193897
83267.6673282379
83274.7818087031
83278.614270773
83273.034921531
83275.0300288335
83276.7878820283
83295.0029332699
83290.2255311393
83292.1595584801
83299.3593450158
83299.096427232
83294.0828624616
83294.5299209932
83295.3904850116
83315.4870251742
83313.2510745559
83311.3834370213
83309.2026269829
83305.1255829427
83312.0464772239
83296.9418786731
83287.684596464
83287.345842824
83291.0219724567
83295.2801741703
83298.9351188253
83296.0244325324
83293.9538942017
83289.7262147399
83293.7072801865
83327.5673327029
83326.0222033073
83326.6583342717
83328.2756833005
83359.7734248131
83361.4435404132
83368.4397638932
83322.5161110011
83322.1025564895
83325.9210749516
83327.8286560959
83290.6839407886
83287.4917248457
83284.0155554969
83287.4887695059
83278.4054876441
83276.1195797665
83281.8353470649
83276.8297914844
83314.6068829095
83306.3811034339
83307.4745979206
83311.3791530118
83333.9353671437
83334.5371773975
83335.0967658923
83337.8683232066
83305.9966305397
83303.3398194076
83298.3005531303
83302.308290622
83298.4168417241
83293.0070391896
83290.4892496894
83295.1771156615
83286.8724432281
83282.4776620133
83293.0476187542
83299.9197840891
83291.2518966931
83289.4690277314
83287.1148910441
83287.4461296638
83281.0093885293
83281.2610014661
83271.7510530837
83271.4564079221
83256.654604507
83258.1383822261
83255.8575870431
83255.5065796786
83242.9188595178
83244.1286046768
83228.4650360354
83228.2135359399
83203.0113613001
83204.2394842737
83180.4391376189
83178.8896050519
83170.1802891643
83170.4780091734
83155.3720609065
83153.0845164914
83137.2773454736
83139.8541519
83132.0450744137
83128.0655240085
83128.9423462622
83132.8809107878
83135.3789417499
83130.4071496501
83132.9998116379
83138.2447183032
83140.5192975908
83134.553244064
83132.6714687065
83139.0655492458
83137.5593239691
83130.9341049059
83125.0171531224
83132.146193283
83128.0981597942
83120.8106526157
83113.3415756708
83120.8509718897
83117.9842546804
83110.1579566724
83103.7324777043
83111.4836662679
83108.6862325761
83100.7941405184
83095.9073787422
83103.5678252749
83103.0100479687
83094.8963599273
83092.3686899185
83100.4870452561
83099.5766758756
83091.8326872527
83094.1350548953
83101.9573744764
83103.2012101866
83095.143808124
83099.4812058891
83107.4836043046
83108.9017742086
83101.2778558258
83107.3147013508
83115.1872809887
83118.0606111923
83110.5495745715
83116.6933422275
83124.0470785825
83126.3692541009
83119.2696254811
83123.8952791461
83130.5206953871
83131.097584635
83124.8009540328
83125.4144592784
83131.3245075828
83128.255895348
83122.9828426458
83120.2726366686
83125.2423895309
83122.5485644652
83118.5345894492
83117.5125299515
83121.5768413995
83131.4234747633
83128.8102851287
83146.7220545959
83148.9820135364
83166.2383570197
83166.0963263283
83176.6996572766
83178.1902588436
83207.2159082114
83206.5302744955
83225.7038218912
83228.2051098384
83246.2491688696
83244.0633105201
83273.2576340617
83274.7153135327
83308.7674506321
83307.9693278393
83340.0786102265
83339.753603824
83342.0938053405
83341.8016394536
83304.0438345267
83304.6243198442
83265.7174415368
83264.1322326163
83254.0855596834
83254.7328898138
83242.5557148065
83241.0003806676
83199.6425032277
83198.1157981874
83192.4646267465
83192.5340076136
83182.0533877643
83183.0496503251
83182.1864231988
83180.5730985091
83189.9591872044
83191.1073134489
83204.6460608608
83204.0285792077
83214.8959935831
83216.3120357761
83228.5214669605
83227.1248715363
83233.41530099
83235.9647130997
83243.1163312792
83240.6992308044
83242.484583483
83245.8755262343
83250.5925232706
83247.4159001174
83246.063885763
83249.3762284753
83250.411186196
83246.8420159633
83245.1082274334
83247.3141351127
83252.0428102122
83248.9282067447
83247.2239449739
83250.8490156532
83247.316865773
83244.4837384141
83243.4117791469
83245.9559409982
83251.4416700847
83247.8769436908
83249.5035794641
83252.795755876
83247.6810387074
83245.4677763535
83247.4688472076
83250.5624895155
83252.4525126826
83249.4219683351
83252.2472917818
83255.641218225
83252.0159878278
83248.9412659935
83250.788383671
83253.8578698029
83252.559452762
83249.0617712708
83248.8513426894
83251.3941646078
83245.0100103294
83242.1766674211
83236.9477953732
83238.5732576117
83226.7165934657
83225.1219574909
83214.7301719528
83215.4376963477
83202.703456072
83201.3991313311
83192.2207798428
83193.3518232653
83192.3177575213
83191.7831070294
83200.1581388985
83200.0148285831
83204.4901008806
83205.8654549984
83247.1453083327
83248.5535740715
83250.5904230502
83248.8962070498
83255.7893820754
83256.4486276402
83259.2543460628
83256.3502075747
83267.0799692848
83268.1693796264
83286.1049702573
83282.912960504
83307.09195997
83307.0201066875
83327.8154253774
83325.4371214641
83347.9161863907
83347.627802856
83363.3591500476
83360.9736175857
83375.5324382312
83376.2791349649
83385.2250216381
83382.5332999458
83388.2489136389
83390.1159201922
83395.5913425018
83392.9722840952
83402.5500440225
83405.2737708423
83406.3613253413
83403.2905603918
83399.4940026395
83403.0368299471
83404.0794664892
83400.6502673138
83411.5379307574
83415.3978064198
83415.0718235492
83410.8057602301
83399.5009829508
83403.3349735106
83402.8842342875
83399.1112908166
83406.9253267014
83411.2751403034
83409.3183384954
83405.9824712722
83396.2036448766
83398.7467796913
83396.1812860369
83393.0649482843
83390.4299501897
83393.1432093391
83388.2492024244
83386.5935309563
83374.7269161181
83377.5419365761
83366.3719637122
83365.6644177307
83350.925211721
83353.2470365248
83336.9936719202
83337.2849189581
83315.3111763354
83317.4485745524
83295.8775339965
83295.9632573823
83270.0339248003
83273.3886943832
83256.4747959247
83254.9190459075
83245.8744053571
83248.896431628
83247.1194155759
83246.4554150159
83241.5005423036
83243.2100157689
83309.7097249128
83307.0374232369
83303.0895364158
83304.4844326521
83303.5580758415
83303.1786226797
83348.5884620021
83348.7989325725
83359.0032980498
83358.2899656217
83377.6406497994
83378.8475203179
83416.247779009
83415.5414704795
83333.1895084812
83336.6674567517
83386.1428442623
83382.9989247964
83443.7069035488
83445.7778878175
83495.1764853984
83493.230202257
83530.5492252182
83532.8689099765
83555.994666431
83553.430368897
83570.5060967141
83573.6561439577
83578.9448959407
83576.298956786
83579.5908966539
83582.3253572176
83582.0226583867
83579.1568529241
83570.9720462995
83573.4367204227
83562.9932978006
83560.2236723371
83536.4384425397
83538.7817277475
83505.6522647765
83503.6345411463
83455.2061490544
83457.2950051956
83399.4031576582
83396.4183552176
83345.0627272774
83348.6291055881
83321.0227896342
83318.3863543551
83314.2663330526
83315.3814822622
83308.8333221811
83308.590441988
83254.2410122211
83255.3835625207
83267.2975136658
83266.9978228649
83276.1502475778
83277.0343777198
83283.2791134327
83283.1039085964
83305.0967407268
83304.664144687
83312.7071592524
83313.6654596079
83310.5238057355
83310.6840526389
83308.9891625283
83309.1152493331
83349.5349742602
83348.5197464856
83357.4536880655
83357.4975902522
83370.0662805837
83370.4580050831
83391.449624063
83390.6590773277
83427.8685352029
83428.3699435184
83482.8261879774
83483.94629846
83545.3347486612
83542.7509300944
83597.687306489
83601.0350513358
83642.3095781868
83638.5164999182
83670.2455918405
83674.1669825643
83691.1946242166
83687.16666053
83699.253037827
83703.1164599112
83705.2144611319
83701.3880358859
83696.4847712141
83700.3038446781
83690.1766690024
83686.3185533515
83663.0427160292
83667.0711112322
83636.3938588018
83632.6640781596
83586.9788561361
83590.4003240064
83533.8536551005
83531.4897087677
83469.4001331777
83470.0280767521
83476.6966037796
83484.615146507
83495.1097038172
83511.2543287788
83522.249600871
83515.7360150191
83502.6103094248
83492.3607433984
83477.793205303
83464.7620933003
83455.6675542954
83447.5690852244
83445.2477724539
83443.3622828464
83446.5030628654
83448.2437927152
83455.3866767036
83463.787200283
83472.3230520131
83478.7442824369
83477.5329270596
83470.3881704082
83447.4749315983
83407.2638357492
83377.4615533789
83356.8499547531
83270.8276092582
83268.9937278732
83267.3074433738
83324.2309385046
83313.5580981654
83321.8442732666
83275.420907699
83270.7643313946
83287.569245157
83292.3899519803
83273.0632834936
83270.8335185509
83271.5302069588
83273.0241874915
83260.9601146625
83265.8378995031
83256.6458241793
83236.423262422
83242.8460090925
83256.8444256522
83266.0980270482
83274.6561654591
83269.4866221688
83266.5411734616
83281.6508508257
83280.7929071165
83278.9825676117
83276.9370248785
83269.3784935366
83272.6750354119
83264.4444801297
83259.7174489546
83253.1034850669
83257.902327635
83248.741969991
83244.768804502
83248.3215813706
83255.9768249966
83247.1317082095
83243.9261638744
83241.0858349795
83243.3410734672
83233.0144383305
83231.9449635045
83221.6842099973
83221.8732044745
83200.8770291701
83201.7604034968
83187.6032025373
83188.5099825832
83169.6961472336
83170.6409572694
83153.7445464248
83154.1880997544
83129.3263923598
83129.0818781688
83101.9927746693
83102.9008079415
83090.4130538054
83090.0298161263
83085.9127712748
83085.0455082484
83087.3735405794
83088.9826235141
83124.5942302309
83123.3263674182
83227.3999116246
83228.5383733313
83368.2826826644
83371.3339435848
83431.4857984939
83427.9351462378
83375.4141839854
83375.3829447434
83242.4369121584
83241.6849039553
83138.0893623007
83139.3392787673
83064.1952745686
83063.6636344955
83008.9647141379
83009.1411751393
82967.7608773447
82967.6995633973
82938.5637287333
82938.5758582147
82914.763365941
82914.8643594988
82899.6807212627
82899.4790406488
82886.7711474166
82886.953859946
82880.0765573512
82879.8874320777
82875.4399658111
82875.6814374272
82875.3392796132
82875.1008436713
82879.1489720791
82879.3567058349
82885.2535899374
82885.052669084
82897.2675701632
82897.4340314421
82911.778327142
82911.6425020748
82934.3429596769
82934.4283361279
82962.7507719677
82962.7832890146
83003.0689352525
83002.7409509684
83057.0204231691
83057.7409793779
83133.3911467911
83132.0664615039
83237.492899019
83238.3994354008
83371.5067873888
83371.8458377622
83420.4820560785
83423.8474492945
83359.7715304405
83357.3210851542
83219.2849731188
83217.6528448547
83119.234701643
83121.1512497625
83090.595205406
83088.9179275845
83087.3390831831
83088.4193439794
83092.3334404913
83092.826917026
83103.8497032052
83103.0922340014
83136.4505098163
83137.1022213858
83154.3680062451
83155.9059102358
83178.4612956248
83179.4403963374
83183.4244378551
83183.6590284491
83200.1402304832
83199.6421058261
83215.4934856355
83216.5091343227
83197.8674375715
83195.4108403684
83174.5884832578
83177.0525343103
83163.6785425906
83161.3399113
83142.9763797056
83142.991696807
83110.5326240668
83110.508874919
83097.3860007806