/*--------------------------------*- C++ -*----------------------------------*\
| =========                 |                                                 |
| \\      /  F ield         | OpenFOAM: The Open Source CFD Toolbox           |
|  \\    /   O peration     | Version:  2312                                  |
|   \\  /    A nd           | Website:  www.openfoam.com                      |
|    \\/     M anipulation  |                                                 |
\*---------------------------------------------------------------------------*/
FoamFile
{
    version     2.0;
    format      ascii;
    arch        "LSB;label=32;scalar=64";
    class       volScalarField;
    location    "1400";
    object      k;
}
// * * * * * * * * * * * * * * * * * * * * * * * * * * * * * * * * * * * * * //

dimensions      [0 2 -2 0 0 0 0];

internalField   nonuniform List<scalar> 
207032
(
0.0157619401057416
0.0167961364797284
0.0219875255387546
0.0209310916097838
0.0164763857516433
0.0163987649654014
0.0205332597416852
0.0198798139512493
0.0195110006336593
0.0156667916940908
0.0160019722076029
0.0154895169109991
0.0153165215256089
0.01538122123975
0.0155490331621598
0.0161354269813275
0.0207216384652534
0.0205281114504286
0.0157371795311609
0.0158302604718363
0.0218653474935976
0.0218089136738544
0.0162939529965835
0.0156320254487403
0.0154430154935102
0.0155156933818515
0.0157280479250652
0.0165271794435316
0.0229435166566909
0.0230974354237566
0.0159824487270545
0.0168293546454154
0.0242155337615875
0.0240203351860294
0.0173595309061943
0.0173438873737044
0.0247593716319795
0.0233478013733714
0.0169338224700723
0.0170334956245357
0.0230869393777384
0.0223087586646613
0.01709354743522
0.016963440754177
0.0207073345455379
0.019400364431354
0.0165805734519668
0.0160014044586263
0.0184433308347874
0.0170955714003242
0.0154593849553134
0.0151585890692461
0.0163352319729908
0.0157529017221331
0.0153139956459975
0.0150257862723047
0.01506225654185
0.015048756816715
0.0150141997412161
0.0150104710906319
0.0150068880328273
0.0150208988334904
0.0150425451661199
0.0150806447817023
0.0150462671425662
0.0151573862240366
0.0163774708879751
0.0164072611010586
0.0151733406176364
0.0150558115558339
0.0150424530146221
0.0156348908554386
0.0157167447456302
0.0153049614878749
0.0153151788587492
0.0150205611323057
0.015022094803465
0.0153518056509596
0.0171368312144495
0.0170256873695082
0.0152768149914301
0.0150892945038594
0.0151442369469086
0.0151583746674746
0.0150977884273242
0.015375221741601
0.0156016252851634
0.015620188374335
0.0153897443094688
0.0152670580265781
0.0154094382304501
0.0151770079478945
0.0151112008119271
0.0150777574061052
0.015114660800274
0.0151933452971626
0.0151285082077895
0.0151791969640932
0.0152431670776731
0.0152885056645122
0.0152324121767467
0.0152892762652244
0.0153559786129219
0.015480857677636
0.0153628871101402
0.015693400456594
0.0159886840823574
0.0163551292672485
0.0161066234053921
0.0174188944423989
0.0256700970671723
0.0253539925428754
0.0178643694593196
0.0180156221603393
0.0259588568867296
0.0252796400289554
0.0175776671782444
0.0178954971829818
0.0261741347207503
0.0269916808651623
0.0181227101906286
0.0182588137849019
0.0265714042339335
0.0268057563715488
0.018403480785089
0.0181345629742188
0.0273412897780671
0.0300875940514767
0.019504447173225
0.0192229262574529
0.029058240021889
0.0285365501072557
0.0185522503055775
0.0183663470134089
0.0303878415552562
0.0293157473906935
0.0176895448199381
0.017266221468482
0.0263664529463444
0.0242388325353472
0.0171396195442833
0.0167650843763737
0.0232767788805821
0.0217035460558277
0.0166907325379487
0.016509262619376
0.0203858016787608
0.0191283076246452
0.016176534118473
0.0164380369954661
0.02024727295816
0.0181784199876268
0.015800095073447
0.0154920567137903
0.0171666865807727
0.0164044994014712
0.0152255723118917
0.0150576708838155
0.0150234732360548
0.0153197462777867
0.0158162709800796
0.0158129972360935
0.0152850126146735
0.0150104162088861
0.0150322216097144
0.015018587370409
0.0150071951839743
0.0150120223286139
0.0150339951219706
0.0150384843183787
0.0151231377920596
0.015092444983814
0.0151788984837703
0.0163975826960494
0.0164203133356633
0.0151141993826972
0.0150151762385525
0.0150033140663159
0.0152869459705772
0.0158169614733694
0.0159095674110272
0.0153427518492014
0.0150009907395177
0.0150115675700366
0.015006298161224
0.0150037287241768
0.0150018081735722
0.015003741854243
0.0150080317633978
0.0150030766131024
0.0150046888270775
0.0150159561155845
0.0150104701369624
0.0150040487958389
0.0150026516577631
0.0150036591160774
0.0150007414613868
0.0150004795710905
0.015001101642378
0.0150024513024347
0.0150057289824631
0.0150025201318179
0.015006840362114
0.015017981987415
0.0150589976905437
0.0150297935124614
0.0150142241394114
0.0150235849062886
0.0150649777058706
0.0150468089685421
0.0150709683151387
0.0150885583391517
0.0151206540714595
0.0151056654402234
0.0151421876276993
0.0151758220309804
0.0152163898336373
0.015181641519143
0.0152268769592522
0.015262550994008
0.0152782508559443
0.0152419441083422
0.0152986658275034
0.0153511045567419
0.0153704437064283
0.0153171318992795
0.015455760912414
0.0155964048680233
0.0156362639031777
0.0155170704430527
0.016164722383081
0.016387745419937
0.0163734797507322
0.0161635789661473
0.017979586706144
0.0181430526175434
0.0182729236618181
0.0183030210969218
0.018126781957248
0.0181071232794365
0.01923726020051
0.0306317707654406
0.031572255592471
0.0194716149793752
0.0196237738177493
0.0350524001261434
0.0332712420655461
0.019431936395621
0.01865559307843
0.0320879466576775
0.0304295429235439
0.0185421182901193
0.0166986043266325
0.0160871196280714
0.0159319592869271
0.0158926685653845
0.015839714413582
0.0159639659961194
0.0159730392738518
0.016283000295901
0.0256616254501116
0.0242208579417987
0.0161990886632876
0.0161532610605005
0.0229097393453842
0.0216679597451009
0.0161313944981728
0.0160857592609845
0.0203386966991267
0.0203442894875984
0.0160671860621939
0.016155274711519
0.0196495829564681
0.0181937179523434
0.0156976068660359
0.0153847262381256
0.0171657365179232
0.0171908856110653
0.0152429296399641
0.0153714550878224
0.0174192914750039
0.0165754964416724
0.0151585829544183
0.015133873562667
0.0166614191124957
0.0159604068830904
0.015373155031717
0.0150032603934824
0.0150099564412669
0.0150066029638369
0.0150029653809906
0.0150016733186904
0.0150036805833429
0.0150037709044595
0.0150016621866671
0.0150016176482689
0.0150041457115952
0.0150047277451379
0.0150015657354579
0.0150008268079153
0.0150043823758129
0.0150023206437018
0.0150016780816101
0.0149996715428035
0.0149997740335269
0.0149995456437167
0.014998995113938
0.0150016648735147
0.01500440812555
0.0150185772689533
0.015010371785181
0.0150073636351826
0.0150097485904699
0.0150311109450576
0.0150222942055597
0.0150568758787647
0.0150749655040477
0.0150947234538385
0.0150808813016671
0.0151134474849244
0.0151235227594722
0.0151130742145068
0.0151020384926051
0.0151351556413818
0.0151452389666437
0.0151560391505022
0.0151407470286854
0.0151752646234976
0.0151892856963787
0.0152077937675578
0.0151929017192449
0.0152438842934892
0.0152787834937148
0.0153001245581061
0.0152657149630897
0.0152858342352095
0.0153200488249358
0.0153398552463069
0.0153059961286774
0.0153688224435239
0.0154297159229095
0.0154496003759224
0.0153907303785435
0.0154803310630118
0.0156068436223652
0.015620457895404
0.0155046512962641
0.015556495104371
0.0156609686067393
0.0164278443403936
0.016230583991633
0.0162195428138959
0.0164121034402501
0.0165627693718872
0.0163924823199621
0.0182361473874618
0.0181926759416849
0.0186364315349316
0.0187413360860702
0.0208598489850095
0.0200689045531249
0.0356811576008573
0.0379114062664635
0.0429880671359182
0.0392399303477663
0.0201303732217494
0.0214760995382582
0.0189338433184601
0.0193196790816153
0.019326113078511
0.0189617230479186
0.0214007174156869
0.0202309195819782
0.0419554379489216
0.0457997855683526
0.0440563297929522
0.0208654600375098
0.0201145496874697
0.0417046824587403
0.0432975459408462
0.0201306718486223
0.020211378684915
0.0436438003297792
0.039056201000045
0.0202224168273611
0.020229979746616
0.0398088646492877
0.0363999733316621
0.0202197879420668
0.0193895576421118
0.0360052287353828
0.0339087090014481
0.0190334423477693
0.0197337874329516
0.0340823833704027
0.0339243888699213
0.0195490966520415
0.0179944099862124
0.0298299738493235
0.0272773530413008
0.0172358619462476
0.0168620744666656
0.025048681328707
0.0244712112781586
0.0166557354454364
0.0166295578453671
0.0228751005662066
0.0214100257320108
0.0165942023918281
0.016576805803509
0.021481954863292
0.022392156162902
0.0164452100600284
0.0163366132649656
0.0205617542078597
0.0220309294235137
0.0163449779178502
0.0161344936818195
0.0215266816986581
0.0228201572250984
0.0161542633447054
0.01617934607156
0.0243329094505993
0.0260460688919738
0.0162369905363077
0.0163102151367485
0.0280189126105757
0.0270683970945053
0.0166808975131198
0.0178632872413534
0.0286574806371939
0.0252425812127816
0.0162155570117422
0.016101224810831
0.0226497443486867
0.0202099376735724
0.016035050529475
0.01561851748505
0.0185569683160492
0.0186634378868395
0.0154507308457894
0.0153333186142515
0.017528170260724
0.0173192936488695
0.0151288241931388
0.0150602088234024
0.0165549528627208
0.0159013142070634
0.015340731744136
0.0150016317089078
0.015007127237023
0.0150113505408908
0.0150025737180461
0.0153398150018787
0.0158978750101227
0.0165496890241849
0.0150680939702885
0.0151451712600097
0.0166561653436629
0.0159570546438405
0.0153704870434591
0.0150047512189589
0.0150090323985288
0.0150087973946725
0.0150033757206681
0.0150028036253699
0.0150062428457999
0.0150048485905238
0.015001811817381
0.0150015739825737
0.015005137674374
0.0150066354149884
0.0150016993608119
0.0150014141294938
0.0150115570133291
0.0150434239128658
0.0150089151749398
0.015005007367942
0.0150021633210871
0.0150179747275615
0.0150368784326825
0.0150769405902282
0.0150454038548604
0.0151035779630098
0.015168407573921
0.0150695058310846
0.0150395190448537
0.0150895596573364
0.0151295362479352
0.0151549884690972
0.0151197569490593
0.0151598576701591
0.0151945798843036
0.0151317413908497
0.015118488441527
0.0151538024291016
0.0151664760591685
0.0151557299410539
0.0151467156945389
0.0151776944878343
0.0151867636250919
0.01517789993176
0.0151690401937679
0.0151849747073297
0.0151947083056931
0.0152055494619533
0.0151912192452821
0.0152099525597221
0.0152239065428451
0.0152266253646004
0.0152122368844395
0.0152312349609709
0.0152456043306421
0.0152651458934752
0.015250702032925
0.0152700445272299
0.0152849820070858
0.0153585014176843
0.0153253784867071
0.015342365715116
0.0153745255226764
0.0154656296616657
0.0154103744475213
0.0154292634739154
0.0154816171876197
0.0156336055140963
0.015527408134545
0.0156116831753738
0.0156888955443949
0.0164847709114399
0.016310911779608
0.0165168822065536
0.0166316986541419
0.0172261995210489
0.017054813061318
0.0171276775586143
0.0172841158159542
0.0189541907768523
0.0186443112479342
0.0186033409613603
0.0187514450688532
0.0200808668300875
0.0439897847517615
0.0468723881769432
0.0207002197601021
0.0207156188688194
0.0510640019918714
0.0476712126905211
0.0201132554859964
0.0200411227384319
0.0490357272036113
0.0453995782855306
0.0200499424462085
0.0202218869136656
0.0422009924186427
0.0437522239233622
0.0202730514525798
0.0198571101038126
0.0394789480219025
0.0364863230169511
0.0197753263343096
0.019741279189082
0.0356882730627567
0.0337512918442081
0.0195223051913227
0.0192448406536169
0.0310777894549888
0.0283917768914302
0.0175930119901
0.0167843575527824
0.0263121454540032
0.0265490906495523
0.0167166844809452
0.0166515713501846
0.0247120082254995
0.0230706010080832
0.0166094298065274
0.0164740120253438
0.0242599219802126
0.023588484638023
0.0163626009475478
0.0163976538289773
0.0254279566950507
0.0276015635660639
0.0164573022410986
0.016536536759116
0.0301317045276027
0.0330490761964553
0.0166850903844159
0.0168584775186364
0.0305190811711828
0.0290363094553065
0.0175853998933906
0.0182622823607373
0.0300073481104503
0.0318625390040648
0.0183486743251082
0.0182201785483236
0.0305849395488372
0.029678717352833
0.0172602177729984
0.0167334133972751
0.0260610206505216
0.0237846769960327
0.0159073290939397
0.0157695401790825
0.0217791899644203
0.0200771210673052
0.0155971048234671
0.0153856369127962
0.0193184219780949
0.0182306984959857
0.0152166131426668
0.0152755655431675
0.0182184503289375
0.0173128933919788
0.0151358371939962
0.0153548684532013
0.0175183813333085
0.0174084624183702
0.015445889410017
0.0152671915725361
0.0171650516303527
0.0171483482034102
0.0153698384326194
0.0151671280528389
0.0163892701779079
0.0158087679894896
0.0152825180757308
0.0150062339062774
0.0150261528390161
0.0150135673589046
0.0150039517545007
0.0150085848492103
0.0150306858093855
0.0150513315377352
0.0158154715143774
0.0153167900392293
0.0150170747023409
0.0150270910517947
0.0153126238798774
0.0157543228086692
0.0150625454040105
0.0152643808684069
0.0163401252553871
0.0164223364726408
0.0152513130420881
0.0151625955127374
0.0163711085223771
0.0170316951955661
0.0172044778983882
0.0155180302510281
0.0153561002676029
0.0156534643945626
0.0157846247248056
0.0184722875020015
0.0180769705438383
0.018694542697335
0.0191391832761764
0.0158669495345803
0.0156499781105213
0.015399782834831
0.0156101817620166
0.0155899625936005
0.0153856622565549
0.0151148026845089
0.0151847351002667
0.0152091098897687
0.0151315837412311
0.0152781346996298
0.0154129973325643
0.0154868817406739
0.0153282057293415
0.0154033028313599
0.0155646665007355
0.0152709254010659
0.0152112678739944
0.0152837831326207
0.0153384894352827
0.0152383935430759
0.0152034681113928
0.0152512304343139
0.0152816414344239
0.0151981601516138
0.0151854439397821
0.0152340673303202
0.0152438712888009
0.0152210270382969
0.0152130321412959
0.0151823884082244
0.0151926331682762
0.0152137983816405
0.015205636565876
0.0152036742060435
0.0152130933007539
0.0152322397974395
0.0152228659882355
0.0152290736986975
0.0152429434468766
0.0152625720298841
0.0152486744795585
0.015268144163797
0.0152825313737909
0.0153024158144919
0.0152860793683563
0.0152877496641482
0.0153045952106109
0.0153251520428909
0.0153060154436527
0.015359293782288
0.0153909473674799
0.0153973327453952
0.0153693514667322
0.0153830321898351
0.0154088850640621
0.0154905900276437
0.0154477975113644
0.015456871068749
0.0155006432210302
0.0156359764113195
0.0155487751046351
0.0155630951030034
0.0156533504015279
0.0157042634217361
0.0156340008274091
0.0156523063598179
0.0157091904223206
0.0157121849078387
0.015726480040753
0.0156213633181263
0.0156928022874824
0.0156910934154593
0.0156175782488768
0.0155404247371223
0.0156376769197933
0.0156291551683917
0.0155342556817007
0.0154405473948003
0.0154876435235023
0.0154827770950427
0.0154364742877999
0.0154902730829063
0.0155237380104205
0.0155320292655551
0.0155343416266413
0.0155340150761224
0.0155079625829362
0.015506383881902
0.0155022637928723
0.0155001758295095
0.0155146902394004
0.0155137399250607
0.0155372925342972
0.0154441600519775
0.0154339750983438
0.0154309504552578
0.0154347311570631
0.0154452161909288
0.0154395322743624
0.0163868225931783
0.0238994618300866
0.0221396031712148
0.015683029370239
0.0154975757207195
0.0206344936878743
0.0207471220528505
0.0156430325558321
0.0155442260378418
0.0193269826575955
0.020014422511343
0.0159657726865618
0.0155527753029676
0.0186347768710008
0.018594478283854
0.015718485819585
0.0155002365927079
0.0181357288181875
0.0181578624159738
0.0156529537067924
0.015779218735415
0.0182242664617722
0.0186383864768779
0.0159817023992095
0.0166027804083677
0.0196438584281963
0.0203497972026403
0.0166705178629192
0.0164667542490421
0.0207286642707059
0.0211440968748538
0.0166177766789801
0.0162576653172371
0.0158609535060347
0.0205254845743955
0.0209129314171454
0.0200664613006974
0.0159746330545668
0.0156913006351955
0.0195987964072913
0.022066075563347
0.0217252244325638
0.0162691907148284
0.0166415543330753
0.0157282688847943
0.0155228905647499
0.0157859416877956
0.0160249023807197
0.0154427597161206
0.0153848222921116
0.0154138384990074
0.0154701260217504
0.0153064831068827
0.0152754448501837
0.0152672801216631
0.0152986421809704
0.0153063348570917
0.0152781421316741
0.0152998923973633
0.0153280491356642
0.0152648506483815
0.0152517102144653
0.0152523042638506
0.0152631063887292
0.0152397940490458
0.0152306286870388
0.0152299151610125
0.0152393415035951
0.015232858097766
0.0152247829057705
0.0152450428818575
0.0152531372561671
0.0152521691887281
0.0152427713531297
0.0152627249087275
0.0152728545759539
0.0152940832939387
0.0152812829236682
0.0153007318261576
0.015316629644536
0.0153233800096311
0.0153046996087336
0.0153146289938732
0.0153306219569217
0.0153422823710646
0.0153279886734974
0.0153290197952207
0.0153436353294016
0.0153434692985881
0.0153286901550138
0.0153767455045917
0.0154019120788893
0.0154111369360674
0.0153879088979021
0.0153972321262157
0.0154215791423264
0.0154997028450757
0.0154601515204648
0.0154735885536932
0.0155147713543443
0.0156448327002894
0.0155644462404356
0.0155848786518602
0.01567078426262
0.0157215441979107
0.0156522441280235
0.0157107098094023
0.0157524501089077
0.0161205559803166
0.0161110907795482
0.0161413374505902
0.0161443928275138
0.0166768895823488
0.0165741615935296
0.0166318513504186
0.0167223695720539
0.0173285276316881
0.0171857223116454
0.0172578994982503
0.017390170690642
0.0187317253626113
0.0186198142322291
0.0186677076775955
0.0187739616983862
0.0201893003701593
0.0520273415298915
0.0561665890580443
0.0207777525987891
0.0208684629013885
0.0624371386086765
0.0573014603428137
0.020290423497757
0.0201477770319032
0.0595190788576861
0.0537608564428062
0.0200803141976688
0.0203886388607414
0.0517288785030176
0.0538541762842015
0.020390356483597
0.0203281747205711
0.0485302827427746
0.0429968959709703
0.0207334844215743
0.0212009696323797
0.0399309254462315
0.037452394468621
0.0199601296378469
0.0178683157661238
0.0171137043918409
0.0166421491638407
0.0164916656725525
0.0188218476855134
0.0311231231111015
0.0286196919734366
0.0172798730293594
0.0166905633599428
0.03150195825751
0.0287381119580372
0.0165584537121914
0.0165104083266617
0.0263231395656581
0.0163300731736964
0.0159514544919072
0.015979946024051
0.0155575427846212
0.0156345891063901
0.0161639701570092
0.0165873351745631
0.0179861176656899
0.0315195465741257
0.0340323240242704
0.0186349263312581
0.0191126277986579
0.0340927744233375
0.0278725811003909
0.0173854871716579
0.0168156364966242
0.0268324626231634
0.0273970319538936
0.0174640926559654
0.0165746763439421
0.0240840109437097
0.0223575754066259
0.0158596031357728
0.0163794703768319
0.024806050141776
0.0222817513955908
0.0161507768238875
0.0165961604235487
0.0216641858211668
0.0228863921730394
0.0166509546252299
0.0166009548002009
0.0214025356632089
0.0204759590771029
0.0160077673403466
0.0159841798006396
0.0202540772209512
0.0195976723393024
0.0160682327615613
0.0163969785297191
0.020390799983218
0.0193598511754916
0.0161813279499822
0.0165902699763051
0.0206893969466151
0.0210648843594129
0.0171366941562889
0.0171629388591095
0.0217430949771105
0.0223148029228084
0.0170960459634485
0.0173736538386654
0.0237423800937655
0.0233046712353801
0.0228577096180949
0.0165350650323852
0.0169345958112881
0.017403441828099
0.0170961428473883
0.0243437528961031
0.0246528491527789
0.0250836412811058
0.0177030942687248
0.0179446027877593
0.0268328955252111
0.0263924719180987
0.0264458120631909
0.0178755646089923
0.0180500178056941
0.017478142468886
0.0171391454066321
0.0169782450584967
0.0173773257461941
0.0160695010413747
0.0158479629944312
0.0158469527217258
0.0160663619308356
0.0154996796896149
0.0154325774465426
0.015468379330043
0.0155344842112496
0.0155013779500111
0.0154476012424027
0.0152980102630853
0.0153283294209591
0.0153512798478597
0.0153212347818871
0.0153447715697262
0.0153749673942363
0.0153500979408304
0.0153224250796459
0.0152733380464846
0.0152862806602002
0.0152842340406463
0.0152736532594487
0.0152513946051004
0.0152604713994593
0.0152598236599319
0.0152504917887158
0.0152711020700262
0.0152813030208474
0.0152743876060475
0.0152654741752013
0.0152846049770817
0.0152964988827425
0.0153201338453946
0.015304776108554
0.0153155314921983
0.0153283588171443
0.0153411021291482
0.0153299977825858
0.0153257961652785
0.015337238639033
0.0153365992515832
0.015324916842702
0.0153281624298367
0.0153421074004311
0.0153551226778457
0.0153421136237073
0.0153419482267026
0.0153554182620003
0.015356385216724
0.0153426499143319
0.0153422854278111
0.0153562001275034
0.0153690827912678
0.0153551223206916
0.0153980165389187
0.0154206077836478
0.0154341356875653
0.0154099163127465
0.015470626807424
0.0155091194100683
0.0155287208069563
0.0154878406227942
0.0155766377268652
0.0156544989063741
0.0156880543953859
0.0156024019897353
0.0156691501410856
0.0157397789133233
0.0157731914503103
0.0157315303913883
0.0157521420686975
0.0157941073638477
0.0163157657652642
0.016307631267387
0.0163150892376952
0.016315627787794
0.0164131801730787
0.0164187198921909
0.0164161601270489
0.0164007583496558
0.0167709825072327
0.0166930036089911
0.0167575267434556
0.0168237098324173
0.0174724998218118
0.0173420508144345
0.0174344805334714
0.0175646456640424
0.0188369903934818
0.0187347588876003
0.0188157851495421
0.0189119447822987
0.0204071754555518
0.0635328212126063
0.0698711283149131
0.0209757643083459
0.0211005930872283
0.020540475542404
0.0709762083533985
0.0789138400161439
0.0898483954650623
0.0212415396919996
0.020689886048879
0.0797966874011374
0.0836149400286328
0.0204457682953264
0.020327131408078
0.0742810999002023
0.0663171343714962
0.0202288513139052
0.0209814217020227
0.0658359116656049
0.0659382194494616
0.0205535432831704
0.0204594039264622
0.0594897486769514
0.0547277482088127
0.0231425706419801
0.0227151228985325
0.0482948930300248
0.0433123551094395
0.0231255248226397
0.0220355708201746
0.0387139833073045
0.0355037897409336
0.0213208490318087
0.0204247810873615
0.0350332893813069
0.0387863286626508
0.0188701757152549
0.0179142146237776
0.034660004561376
0.0166128483087309
0.0162141033852533
0.0163419376594486
0.0158347357735674
0.0158060413235642
0.0158932357325302
0.0155141483016108
0.0158208985695826
0.0162832189398656
0.0175976803299311
0.0280174309152382
0.0287373197543033
0.0179940495302151
0.0180868484900606
0.028998976706902
0.0329992917580608
0.0192171330424043
0.0182714162522615
0.0305494009907238
0.0291725902964303
0.0181092033947615
0.0177367018956933
0.0278244636578501
0.0268579452403584
0.0171323573850884
0.0169708878781925
0.031532585845648
0.0288533162545794
0.0168414815628257
0.016742556899896
0.0265994251243683
0.0245656644528734
0.0166665053030088
0.0166193953476282
0.0242847033972078
0.023132528530887
0.0161120123790314
0.0163598082806425
0.0235179520558561
0.0220541691211146
0.0162952709420702
0.0162568032990564
0.0205176106325531
0.0224504642070069
0.0163684209703117
0.0165717128044465
0.0216678552393482
0.0216939110365734
0.0166396308408862
0.016986113793755
0.0223446535530035
0.0232925135246842
0.0178220891161767
0.0179056263580774
0.0236716757928064
0.0245699342477859
0.0177363404934573
0.0180979837873199
0.0247409601621188
0.026870169374546
0.018194547385945
0.01821938588569
0.0286172288674484
0.0281493838501908
0.0179577165270552
0.0180486697747664
0.0178282421110738
0.0277787915722514
0.0274478227937507
0.0286727422739006
0.0294657818040564
0.0178513528127959
0.0180826440585385
0.0172905066589371
0.0170008326486556
0.0160035617129845
0.0162278075856012
0.016179379807002
0.0159780530234824
0.0155040188632991
0.0155702300776411
0.0155295025529105
0.0154771977296197
0.0155044173592077
0.0155555859503185
0.0155784062932821
0.0155288300074864
0.0153680407337682
0.0153985130935951
0.0153713954452001
0.0153439346284463
0.0152950731681518
0.0153087349283534
0.0153063609971738
0.0152950406939097
0.0152722780483787
0.0152821970146874
0.015305013256514
0.0152920311332336
0.0152904864359655
0.0153036538393861
0.01532778143442
0.0153110828998967
0.0153222684615044
0.0153363380258617
0.0153498521493351
0.0153376173858046
0.0153310246945519
0.0153419341819031
0.0153571419753736
0.0153468136727578
0.0153452059943197
0.0153558039058441
0.0153513592627059
0.0153406259008549
0.0153393975058552
0.0153504436134022
0.0153645948136473
0.0153533939215976
0.0153554612806005
0.0153684290271268
0.0153687304585419
0.0153552051953109
0.0153555715816075
0.0153693550584782
0.0153824311241332
0.0153682294595545
0.0153676682463416
0.0153820363265783
0.015430243470869
0.0154078385908076
0.0154219268327157
0.0154464714053202
0.0155186697319364
0.0154805184036439
0.015501044191381
0.0155423406417882
0.0156645594443401
0.0155877153188455
0.0156184253486661
0.0157049352730402
0.0157581463834077
0.0156857122744944
0.015702304046407
0.0157764747803922
0.0158143135616891
0.0157715155686546
0.0157909201419266
0.0158347108410498
0.0158545450857731
0.0158096577268963
0.0158287679888985
0.0158748001981913
0.0164793082935748
0.0165016765602198
0.0164965626039675
0.01646440171344
0.016538246276044
0.0165759371082336
0.016568713770351
0.0165224430511339
0.0168796449934885
0.0168225614793023
0.0168828093753009
0.016937198666107
0.0176624839125946
0.0175333226037225
0.0176360476040046
0.017765856022765
0.0189978368366412
0.0189091028257224
0.0190126686890302
0.0190947744896162
0.0192015023425406
0.0191242091657533
0.0213995050615987
0.103214548226954
0.0903197505376647
0.0208551682969633
0.0205806422804658
0.0945815661224237
0.0999227266657906
0.0212629516559688
0.0209540543371081
0.0959946706775696
0.0836695256945111
0.0207761327093831
0.0206588805319433
0.0738244464466281
0.070616240510392
0.0228046900249793
0.0229602876372745
0.0622363287787007
0.0632791104329845
0.024337048502617
0.0245016121864603
0.0541994836754888
0.0490527509625903
0.0245633447452862
0.0245930341563569
0.0461346033445536
0.0552469560069035
0.0245162393630767
0.0234292484080284
0.022589891041593
0.0232078463089662
0.0429501668563621
0.0416210889878729
0.0231458717589641
0.0231050760308444
0.0416030898476586
0.0384868176210012
0.0223455368887649
0.0221423214889158
0.0374671188510396
0.0410530314810503
0.0222171001628883
0.0206198155097167
0.0406310592334342
0.0440464460443674
0.0190510454133657
0.0171455847627013
0.039779266670909
0.0362378645042257
0.0168940658178627
0.016999326094797
0.0335399485634051
0.0336791118298798
0.018016801894984
0.0180357085923875
0.0372598496766418
0.0345702232060614
0.0184036991730309
0.0185539379995197
0.0378978004311923
0.0416547289696744
0.0186956931107858
0.0187517687411263
0.0375442311006971
0.0419193451221571
0.0214795293130954
0.0208024460934882
0.037373954838098
0.0364865701308597
0.0198533647496063
0.0186903963363745
0.0329176105223746
0.0308741213715788
0.0182622809013281
0.0179738562633929
0.0296580265938842
0.0304369777273029
0.0182421592701518
0.018249206643642
0.0310688383319827
0.0362096313026005
0.0193905787859437
0.0214430865498869
0.0417363191835201
0.0360067766188784
0.0205180489271684
0.0192009039391332
0.032671390048424
0.0298115127702479
0.0187608963576446
0.018275951157177
0.0316248273617189
0.0377641388643037
0.0173232213694608
0.0171508128702967
0.0343574997020423
0.0339522107146812
0.0171281134235171
0.0167564853172228
0.030262128841525
0.0316040991323603
0.0170743869706142
0.0168292850656313
0.0292694031412243
0.0271218363450813
0.0166234270902931
0.0164672508114653
0.0251906844087357
0.0261411811504184
0.0165626406029184
0.0167830967301135
0.0247362887519701
0.0247249294825055
0.0168551810800845
0.0172442163432481
0.0260266199630319
0.0294236464074941
0.017969042954133
0.018124767401388
0.0294985657028621
0.0308352635966991
0.0182889084718472
0.0179766176433258
0.0297117639510444
0.0313119531851741
0.0180400816876423
0.0181614396177546
0.0179231346395365
0.0312419962806837
0.0300256042630075
0.0315061117245986
0.0332492401174597
0.0180498288816346
0.0182912247689576
0.0174711053668065
0.0171729400498052
0.0161606970165986
0.0163914265520032
0.016267522515598
0.0160765517431129
0.0155739312621409
0.0156393302634817
0.015668507302605
0.0156047372786645
0.0155493506291082
0.0155966213744951
0.0154208959803968
0.0153893831388213
0.0153636299754931
0.0153916892310763
0.0153321312315898
0.0153156623919736
0.0153152767768125
0.0153295764406463
0.0153552581212034
0.0153371658276769
0.0153132896274768
0.0153300323353724
0.0153390283470978
0.0153250770970527
0.0153414183722776
0.0153532839293466
0.0153499708403073
0.0153380793642034
0.0153548940723673
0.0153661480561565
0.0153659366427545
0.0153540817023204
0.0153707961020572
0.0153831332891072
0.0153731490489213
0.0153625740467017
0.0153601940383787
0.015371060285744
0.0153659155036927
0.0153550737327791
0.015369541555014
0.0153808734222668
0.0153789960633203
0.0153672646910252
0.0153686080647474
0.0153819435057279
0.0153821421167565
0.0153681668163218
0.0153814590667589
0.0153958241621608
0.0153957503119641
0.0153811534929616
0.0153804549586478
0.0153952041119016
0.0154402275979351
0.0154179834054829
0.0154339943079117
0.015458826964305
0.0155285842533922
0.0154907031564943
0.0155142792298846
0.0155559680524449
0.0156751494706951
0.0155991575568881
0.0156344905728266
0.0157216886402145
0.0157382412601746
0.0156505157269356
0.015718866825635
0.0157947576990945
0.015813003423202
0.0157354204923758
0.0157520175869785
0.0158312330586816
0.0158494459818484
0.0157686720665917
0.0158474730866481
0.0158946542544786
0.0159150458010711
0.0158667281641881
0.0158856578362619
0.0159350695897019
0.0159556442009783
0.0159051756815232
0.0166445253958337
0.0165932945281956
0.0165755776151699
0.0166348016702172
0.0167066835253869
0.0166437731343781
0.0166235124715438
0.0166943289523377
0.016939055894841
0.0169950210123896
0.0170518582790626
0.0169913087125385
0.0177398041145626
0.0178728586170083
0.0179808227824975
0.0178414604713144
0.0179362050849656
0.0180858785516609
0.0193154031100919