/*--------------------------------*- C++ -*----------------------------------*\
| =========                 |                                                 |
| \\      /  F ield         | OpenFOAM: The Open Source CFD Toolbox           |
|  \\    /   O peration     | Version:  2312                                  |
|   \\  /    A nd           | Website:  www.openfoam.com                      |
|    \\/     M anipulation  |                                                 |
\*---------------------------------------------------------------------------*/
FoamFile
{
    version     2.0;
    format      ascii;
    arch        "LSB;label=32;scalar=64";
    class       volScalarField;
    location    "1400";
    object      omega;
}
// * * * * * * * * * * * * * * * * * * * * * * * * * * * * * * * * * * * * * //

dimensions      [0 0 -1 0 0 0 0];

internalField   nonuniform List<scalar> 
207032
(
3.36607371085216
8.27064952487544
28.522009738685
25.8065443086525
7.03439874466395
6.83465801075623
25.4349596265525
24.1323410850471
26.6476806998628
4.5140207152844
5.11767215817931
2.58173514197905
2.17021014142425
2.29026078099996
2.69043449230602
5.54705401617851
25.4553450530674
28.3486953116928
4.68694897463968
4.87116662221877
30.1646035195909
27.1632033932786
6.09216792061548
2.9068762820694
2.41265441545482
2.59145774262379
3.15774102219843
6.82475752469298
29.1526129886136
31.9070283488035
5.38607977805812
8.56106301355507
37.0413656159726
34.572807974861
9.77704091729469
10.0643697930513
35.8781820435276
31.6733365629817
8.76547302296956
9.629387742539
35.4637414393384
34.2073984598168
10.0516289897039
9.6486205742473
30.4639689411045
25.1981856174835
8.08175201008946
5.33445617871569
19.2693530308532
15.3436583988303
2.89279558048019
1.518605950881
13.738640976632
14.0712769911153
14.3850306867294
1.07608845958226
1.0908433390796
1.02279597702448
1.00357641150816
1.00224712845034
1.00113848338092
1.00461651886067
1.01644137255831
1.03082480704173
1.01220089119174
1.73826448681064
17.5347412817259
15.3108502731556
1.67928874884581
1.06975351210402
1.0418343814824
16.6687280865748
14.8780123456452
15.0809171336171
16.5571683407416
1.0305185033364
1.03791106226977
2.44197860626153
16.6743536709547
19.3501263696964
2.38538613406477
1.16065532894363
1.20588797613288
1.21192093197347
1.16345732490053
2.93310737601698
3.54366060195125
3.54386224718026
2.94131100217459
2.0933688531746
2.3475482662663
1.21882851987348
1.16797077406533
1.06018159770551
1.08353939541626
1.31753708211579
1.18731241529667
1.27982667398572
1.40001614263188
1.44411036615729
1.37056432147943
1.48155253035617
1.58036011081255
1.91376658526021
1.63372349411729
3.17546169728917
4.02874179783837
5.44038522092401
4.81574358784094
11.0838358704692
47.6655276346102
45.6290291031028
12.0510336725748
12.6604414094754
45.3008065029675
40.9946120582696
10.9380306887573
12.0878297887152
43.6689645155068
50.3855626827278
13.0341804757177
13.6826762073692
50.6533392188386
56.7564515999001
14.6418179466134
14.6877534514685
62.2501693191586
82.6837706783662
22.4020786003096
18.8695893636785
70.3247043902712
58.3654541563943
14.8729113436645
13.8042661600728
52.6307548714779
43.3354727507192
11.5380340455928
10.4219975583267
39.1427880642838
36.6859124054436
10.1164935158662
8.09217432144704
30.7339275924274
28.8062828433985
7.87210506232533
7.32128398978955
26.6743102845631
22.8752436570573
5.95891242366781
7.55194462577195
24.9937351213042
18.2468053717957
4.85812608083355
3.35676587885826
14.94089414632
13.0727953796602
1.96762068695312
1.03819545332821
1.01055004079425
13.8826513885871
13.1540362811455
11.9403490337487
12.0348993915355
1.00269391400559
1.00926899987373
1.00318888910787
1.00106526204226
1.00255046454238
1.00907542561666
1.01100342517553
1.3277810354285
1.40775170663448
2.08352174345395
12.680255295836
12.5438238493339
1.75960059943014
1.00575774881379
1.00167190079091
11.8498111920254
11.8081079058084
13.2079066889747
13.9064488708823
1.00444104705541
1.01019393967978
1.00066069315484
1.00040879187942
1.00011539810556
1.00023831295335
1.00081557046008
1.0002713250854
1.00054159665946
1.00303291638489
1.00117820267479
1.00027402856087
1.00023551373567
1.0003745640482
1.00000242690988
0.999985086199086
0.999951673474903
1.00007147880363
1.00031115966707
0.999979178121062
1.00053502502207
1.00276600612594
1.04113265512671
1.01984794630151
1.00251630904166
1.00524577317457
1.02128080551202
1.01454210640669
1.02595516687484
1.03549827801841
1.05548988075448
1.04607108670923
1.10936115897303
1.14443263124416
1.18461837741177
1.14815700663654
1.21223837984805
1.25343972466743
1.26530491161034
1.22259527972904
1.37267122160969
1.45941492049362
1.47994420840371
1.39057311816524
1.85796254028058
2.23113882783898
2.31692956895637
2.03573799796344
4.89625886971549
5.45532366532307
5.41795162810972
4.8857691607856
13.7997035737522
13.4323103243456
14.0468150092819
15.5642406727464
14.5328902944703
13.1711187884137
18.8551955436619
79.4371785716652
96.1664363538299
22.1067028214123
22.708603510902
99.059142319517
83.4190476465135
19.6354269681531
15.1440355670458
68.1670448150932
65.3037050922807
14.7194498925402
6.54651583432491
4.01969288266867
3.28003129962301
3.75068003428612
3.58354891091916
5.08949511551921
5.05202614936997
6.73753532262262
32.6432242867088
32.180082273955
6.70306479482846
6.66369708667733
32.3678945205842
33.0280991899497
6.82294005322833
6.77936110141764
32.3429668999874
31.9360848322201
6.69477509576595
7.25063872774606
26.4657127463492
19.218575945443
4.84099882890633
3.30583576475463
15.2447396245379
14.8132102888887
2.54369087271879
3.52961962267673
15.761780670373
13.4309526258645
2.17776364354285
2.02056680672805
13.7560681682713
13.9444162344832
14.9598405201492
1.0038837690834
1.01157173981629
1.00083406438241
1.00025812746538
1.00009244171378
1.00021655297765
1.00017997911604
1.00009250721617
1.00009085174516
1.00022673163521
1.00034664983714
1.00008072931878
1.00000760652475
1.00030943629917
1.00009580593968
1.0000321663152
0.999942252784334
0.999941707475129
0.999937282806356
0.999918699669058
1.00008764522047
1.00040193522018
1.00360589923139
1.00134215117041
1.00060545232287
1.00095438693508
1.00865229471494
1.00494741988305
1.01971524263966
1.02873443448304
1.03844832947972
1.02900754489466
1.04791697888693
1.05465238857182
1.04676995529607
1.04091929680289
1.06536081961135
1.07183188471173
1.0822487469621
1.07154822175408
1.10408494182736
1.11619455848894
1.1375831225823
1.12284345998374
1.22875926368694
1.27041121844986
1.29887394868901
1.25697890018167
1.28379182676156
1.32645916536786
1.35777809892361
1.31480658627337
1.52325968977675
1.63827502897014
1.66381957866072
1.55283486897006
1.88881555073153
2.20661672316734
2.20136096511719
1.92142160766341
2.11921293084798
2.34591287233766
5.47723554647508
4.99175461069952
4.96054841572802
5.43960602963427
5.89427983593729
5.56553426202834
14.9408449824451
13.3723049867165
15.3079808645595
17.2741284213946
28.6666025795383
22.3273259947579
93.6210902398645
113.255727604566
137.090152904669
105.47955395813
22.2094054355533
31.2991789863331
18.0810720766829
18.4201039695375
18.4334315374046
18.1367782528477
30.7279435372853
22.6661812533233
111.622883234572
143.455357599666
121.123425063725
27.6987956174569
22.0325436798766
106.352320300559
96.0492308167107
21.6246841393011
22.0034074114673
97.0521117906474
94.0315423876383
20.5577157324444
20.6694734458341
91.2605004961387
87.0493344563522
20.6570820144627
17.5934257390022
84.4960700547082
77.1021974191675
16.5276693668036
18.2652586184681
65.391945834723
54.6503288474147
16.6770994385496
11.156029922941
39.7626467212209
34.948094657017
9.31607053832868
8.35189771000566
32.3668875559163
30.2549492304119
8.26477459056876
8.25405913019466
29.1213059448102
27.4230671551079
8.13464681436648
8.13015357047339
31.4657639765135
40.5448372126871
8.69528443157057
8.36958262893848
37.493225510462
40.9016798709844
8.34621579278734
6.83193458023175
36.6659264761524
36.0411577155894
6.7834308647721
6.77704353670257
35.8800933871709
36.4695877223699
6.81187369207477
6.89228807091933
37.5487712963374
34.3163779571111
7.62770372101019
9.92800201686544
33.4946837914375
28.0936916965789
6.47333989397211
6.34158752312639
27.2414562416231
23.3247307447899
6.29361222599539
4.77235766357445
18.8791708039673
17.6166130482837
3.72840641102467
3.22606430451569
15.648554552236
13.412055640895
1.77133312481017
1.41440557080657
12.5006160409584
12.8236215978407
13.6192668991236
1.00347048367644
1.00924241190153
1.00797560819805
1.00297264039819
13.6044794505124
12.8124970009158
12.4972938488417
1.42104185965216
2.02119901382318
13.7715737994816
13.9329133838886
14.9140124204606
1.00339038493706
1.01192510721479
1.00125231819549
1.00031797343187
1.00022766472345
1.00053660356327
1.00029965222798
1.00010969140804
1.00008606900153
1.00033768751183
1.00060391660427
1.00009447476199
1.00006965739063
1.00212497426386
1.01790086652627
1.00177085505113
1.00074969936231
1.00018462033317
1.00429454431009
1.01464893243547
1.03657287066265
1.01301538438256
1.29171449431694
1.37531919434822
1.07450717409991
1.04165616689567
1.09481060284614
1.13572672224917
1.1653131387988
1.12099698749848
1.16233856890287
1.20813008921019
1.07015311721606
1.05897744622892
1.08875275759454
1.10055848606119
1.08157196722305
1.07379819765092
1.10682419077422
1.11637119933487
1.10619818027804
1.09849981238076
1.11582709778955
1.12633114319476
1.1368446370286
1.1226059536592
1.14773670657317
1.16250757908961
1.1625910080419
1.14766339423169
1.17565471443652
1.19159814377576
1.22622745372644
1.20900969811232
1.24720065443285
1.26766601594783
1.39302921370342
1.34978757351562
1.38345063894353
1.4320857620964
1.68868421325736
1.58413068349737
1.6194602402297
1.71888715671815
2.20535619328642
1.95873236788806
2.27191742715205
2.3965492774364
5.53627706019673
5.13495236973476
5.81731267703408
5.93002751803555
8.64843919606752
8.52650355414672
8.5976116824439
8.63441699905325
16.4808094265764
16.2411811965198
15.7139902037843
15.2255718844791
21.5692346226495
98.3081656239502
110.43523235264
26.4286953348933
26.176320235758
112.895844985986
98.3586276082381
21.4231460933957
20.4146094541659
93.2649705540139
92.1427170902764
20.724353278434
20.4138158233158
94.7362695871568
94.1484827302992
20.6701905932023
17.4703178957806
73.9836946515444
71.8130149108681
17.3341434331144
17.1213198822984
58.7256625625723
50.1917293189205
15.0256350277511
14.3029848776312
44.1341066673721
34.9120683540866
10.2542498377346
8.48522387749764
31.533401218886
33.849680426812
8.25332901406148
8.18304007128791
33.0288547151857
32.3938873003016
8.157549165825
8.67122316857925
41.2778827981483
40.9342466773761
8.33373080530548
8.34429612826379
41.0484926671693
41.9803337588054
8.38708081155851
8.46374327148843
43.5359661608111
45.4929713748525
8.6844408667841
8.10054313225246
40.4504240037999
40.4159297595683
9.7928487430205
11.4738994149063
47.7746634784403
50.5827666440161
11.5682457833181
10.6769862599308
39.6697265159802
29.8996393839392
7.20599849451743
6.11519922285583
24.6101462720587
21.9957430070395
4.59406050497112
4.46614095180239
20.6590199438474
19.1420958913978
4.14997296401193
2.52964869354295
15.5314405617746
14.368837130592
2.07560419710947
2.28245596748625
14.521955600668
13.4059994447148
1.76204514477558
3.21133324052366
15.6657181820433
16.2725385193653
4.00747679255759
2.765179074716
15.2036084318906
15.2732518435187
3.30451515629194
2.07517647418219
12.7257495947702
11.9335936844583
11.9846806053789
1.00186595392969
1.00781164451859
1.00207943905754
1.00041492900197
1.00145587416442
1.00839553478139
1.03932149171967
13.1930630953073
13.8435919469827
1.01381700548557
1.10447210690962
14.3406538565692
14.1245114262557
1.11384757763894
2.40040680481504
14.5973916671075
16.0448208868166
2.33212476968033
1.80920348732898
17.6605102005529
20.4609206172822
18.9785958209238
3.72595997661073
3.30441461365731
5.48066400830154
5.06282163943786
23.3117688259486
26.3736497545822
29.4749556175578
25.7990133283216
5.09879914027554
5.16670818533396
3.29683702351011
3.76700586635199
3.75921076534596
3.28896287758535
1.29615669847906
1.3842295770212
1.39486237969198
1.30264919278419
2.29234436417749
2.48258527792359
2.731777356763
2.39338512668494
2.63066097099997
2.96335456449826
1.53094569895987
1.43084971139742
1.61575387858722
1.66346473575869
1.2596889056125
1.21718788393912
1.29709708021428
1.32807990641414
1.13510785434344
1.12191813372152
1.20863454026301
1.21694597786817
1.17163057997813
1.16034138950244
1.11523413116301
1.1263511239065
1.16104078009583
1.15102859075472
1.14369707455134
1.15449105677928
1.18924845013105
1.17788370594867
1.17835110090302
1.19393867447925
1.23228216425725
1.2156955330579
1.25828140866988
1.27822925458276
1.33352963977782
1.30258314188618
1.28536462689698
1.31678623315972
1.3711868988559
1.33056250792328
1.42135855118539
1.47632411553017
1.49348360090163
1.44070027017718
1.47094867561665
1.523384238616
1.74252317439738
1.65282967174133
1.67107450001984
1.75631645262518
2.18813427491195
1.98320860077251
2.0278204778158
2.2346487921181
2.41777762317616
2.29243258966175
2.36145338762651
2.42232859007532
2.42257150264352
2.65185081878079
2.2858708630456
2.39791760289703
2.39708208755378
2.27112714297264
1.98137788803998
2.20685516230318
2.18426991894936
1.96282259400457
1.63937403768271
1.73035635561686
1.72377136259261
1.63253470581988
1.74136347661042
1.78416248569537
1.81126668170837
1.81162713179473
1.817131856118
1.74597464222641
1.74105405042783
1.73812587307131
1.73277605780298
1.80511918519916
1.81565056523042
2.10115239372064
2.06009965245886
1.92818025550706
1.83709742492738
1.84918583637959
1.79542482479291
1.7230754974479
4.21308809042466
19.6867486113367
17.5848273987854
2.87624336431565
2.65319492046177
16.6705116382015
17.7739007710854
3.16568388270385
3.10174850905286
16.2364850322651
20.8885441423889
5.54745340650663
4.0852490342968
17.9327485742205
20.2404755047137
5.34924293203538
3.98547159280232
19.4065909582905
19.1073571156958
4.72765436145236
4.91645925977809
18.5196894778706
20.3521063403873
5.4298151391683
8.31378670076531
26.0332273029583
27.3471626339211
8.93462358128419
7.58213187689283
27.5643566525154
29.8356811049106
8.18650300366175
6.67986727178763
5.91708952697674
29.3780093898598
29.6871695834995
26.8565924476732
5.42630070038402
5.19956657479668
27.8431776020208
35.6875865470393
35.1727256055718
7.88673967108769
8.58828684921561
3.67391175630036
3.14115293324905
4.40827763819604
5.05617331864913
1.98748877788556
1.93317577011071
1.97203391699953
2.02625807308944
1.37611109535521
1.34246188306756
1.32114383912575
1.35502962134235
1.3599665176278
1.32514790281823
1.37359606308286
1.41072990398806
1.26248053564735
1.24345611395781
1.24675046150684
1.26051597276815
1.21107381188115
1.19524381926517
1.19142062899706
1.20859669312284
1.20046720792955
1.18872137013604
1.23567958486928
1.24838932050803
1.23207525203322
1.2194579933393
1.26810221470367
1.28404680391169
1.34629323586904
1.3177317697406
1.37511534632076
1.41502137352276
1.39297538930138
1.3526966377576
1.37603155834636
1.41460025012859
1.44776372741402
1.41122434795542
1.39319592589733
1.42693027579745
1.42092946696865
1.38484548257401
1.46848602060725
1.51856573063022
1.54909533017798
1.49834103083392
1.50454752471584
1.55595758414017
1.76595890736312
1.67823408234767
1.70520982637797
1.78550100011602
2.19917343993752
2.00950152870065
2.07333655343847
2.26727766422647
2.45163068474892
2.32504854597194
2.5482561791177
2.54535070796128
3.93041193510407
4.13426233319335
4.17675650282944
3.95572176402243
5.89960636469434
5.82237090282334
5.85151215171369
5.90039426046741
8.56362749093583
8.58283527938547
8.63667408899046
8.57832324509249
14.8440707334989
15.5044799455156
15.4361212312021
14.7653170183699
21.5086944188769
101.513882850023
117.401371477486
26.1525668762067
26.2472983025813
123.438585318416
106.271786090823
21.7001855024463
20.3983269402223
102.070939557732
96.8979533522431
20.3437031746576
20.6811348520913
104.00946809275
104.404822380894
20.7892000913252
20.7286891170707
98.7686623013688
79.8754885228837
19.7594709312014
20.6017976045034
71.3371788110141
63.2457023962414
17.3026734235783
10.5953221777127
7.54980185623024
6.20276671591101
5.76290150042099
13.1442390976663
43.3335812438517
36.2009855361535
9.47690012622179
8.85605600092121
44.551010826326
42.8712840654459
8.66830300476136
8.65757079732814
41.7640568005427
7.60607618040801
5.38982380603702
5.5754700960043
2.52669419610182
2.64692508136389
4.16113763749006
5.10732084345816
9.63093489649477
40.3055979210283
42.4444640479746
11.0254809052377
10.2806625615148
35.4941929888658
25.3376580181332
6.04334840095908
5.04929439595927
23.1097165098104
25.9289139498725
6.62034937889857
4.80177719040113
20.8876596786157
18.6575546168499
3.4346608716457
6.36489698893438
26.2696263143273
24.76722058879
6.00452256941791
9.07333188441014
32.7477983907432
42.4668193899941
9.55641540275661
9.59191414189831
38.5014294578776
33.4325296774357
6.75752007104709
6.60976067818407
31.1274088965875
26.039634388907
7.07452027727213
7.55706420241889
25.4633036950889
23.7326694371629
6.13887562450031
7.9226296721484
28.6101806585603
32.2169508367003
10.6040263445907
11.0713452807932
35.1013185165677
35.4543012720402
10.3167603951863
11.8066453448714
44.923445363473
43.2627152428349
44.1087535025657
9.26787548236637
10.1103963548041
12.4854900439308
12.5571176979632
56.6005591449604
51.0614010770457
54.212495383118
13.5930165532371
14.7623901941523
60.5147913577789
60.783759801687
74.1749863203056
17.5488988913112
15.8473429498336
12.7074673730177
12.5909417428117
11.6143293628587
12.2247306748644
5.09553933932053
4.48857455101772
4.49825533956016
5.08740244258285
2.16559671052252
2.06933412337273
2.12865015851519
2.21993012255866
2.07376397246955
2.02648543658336
1.38083863247585
1.41369960566512
1.46363713483491
1.43067754988987
1.49336751528476
1.52879572155312
1.47209088284746
1.43453992125687
1.29983926795968
1.32027248689942
1.31687031904136
1.30152482979411
1.24647975723305
1.26390777520337
1.25812274372969
1.23928053421995
1.29507689243641
1.31844165470849
1.30599421283243
1.28974064489701
1.34613049127964
1.37508333094316
1.45271537401821
1.41069751460917
1.44333453681042
1.48274886852405
1.52859714233167
1.49066357365197
1.4562471951578
1.48768577701204
1.48354685091036
1.44940086312421
1.42543775671731
1.46014037451333
1.50234111866861
1.4678004626721
1.44889454038692
1.48520547813097
1.4638963821438
1.42951180694974
1.41863783146082
1.45339542712179
1.48594246000826
1.45016438841983
1.52567731592681
1.57793075671515
1.58824099379123
1.53542298409681
1.70086511221194
1.78912042569867
1.816125574625
1.73580472855029
2.02999549929028
2.21337392527564
2.30271236989489
2.11173318408804
2.35953634047301
2.49050895265707
2.5789175070678
2.59372805848439
2.64085589006555
2.61705401354883
4.52498405080753
4.73677600468521
4.69211054050987
4.45933844356618
4.75068015442319
4.99898477704181
4.92191372739264
4.64501680600212
5.93712916166943
5.90251389742978
5.96969077717198
6.00631506039714
8.69387001527787
8.74530564894021
8.89014641924735
8.85799487188421
14.7786388772334
15.4466596372479
15.5140017238581
14.8408531356034
21.9533457754117
111.895339279669
130.416191394838
26.4123017891438
26.645178173082
22.2697614028228
118.350681566289
138.533565652164
147.766358629202
26.9282254831203
22.6514735554317
125.412867210666
121.473055500278
20.895059486612
20.6658223135474
114.633919401545
108.117355841877
20.5028849209638
21.9709389377747
118.4965744392
117.868446794281
20.9465176506355
20.8434529364193
110.834248330665
107.589815489911
26.2209730780476
25.1108849666956
94.1840807085566
92.1569745629615
26.5654490897679
22.3476660686463
71.4839842761269
65.9414626379281
20.696586689092
17.5078363304625
58.3824366219012
56.4694914954033
13.4959287399623
11.4892173612548
48.9819145728283
7.73058364498876
5.35784781971733
5.74442578682032
3.19106171197884
3.06416097537961
3.28865287115644
2.03436424526422
2.66782858493442
3.62125996170491
6.39538512773576
24.7252065234598
26.726746440654
7.49230250897377
7.96104512409725
31.8111609230526
41.2820037013338
11.6928639289183
9.72406213912067
36.9607576650687
33.2206886882979
9.7806002102961
9.04638904043134
30.4643550341814
36.0811466839563
9.1085855172401
9.56353452411081
46.7342844113312
44.508440146739
9.34176764188471
9.37822044804714
43.0992341187493
42.4701838273371
9.28618332165816
9.20803304282281
42.6346635476123
36.120014226754
6.78636212242446
8.26688945075061
40.1718040666069
40.1309103579798
8.23088605489368
8.23721463847674
36.7837633473274
40.0310156753813
8.51307122896852
8.2288112111295
31.2174289238345
29.0415478247504
8.44081209995418
9.49123048440474
33.3469019457085
41.4513465254846
13.9265705652678
14.6921623919202
46.0160442134506
54.4724522212871
13.8045793729678
15.9727260127033
60.4027240964637
66.5097075914872
16.2582142337366
16.1613617570302
67.7219548679802
61.7105768801643
14.6413928422979
15.624820681988
16.9691701466221
81.7717614320547
63.9350886931545
61.7621710055105
78.5275663031252
16.7195843408841
15.5058862824128
11.0964387449919
10.9862708642881
4.7676107185802
5.35878814027978
5.1461690250018
4.64254301773812
2.19943548224428
2.28830846199913
2.12241644649338
2.07838837518909
2.1393484145281
2.18285915651698
2.25810088882708
2.21193583268332
1.57005630867588
1.61060726541489
1.54667827346615
1.50540199906355
1.36841749970233
1.39403714641254
1.38818012164596
1.36788227836029
1.30773188327585
1.32958569482828
1.41297010277068
1.37733507044883
1.3564242697815
1.39255969092065
1.48566398833595
1.43402627260072
1.47760353095239
1.52804197373777
1.59613952161813
1.55396210744443
1.51484944621197
1.54429268599467
1.61783437721694
1.58689928186365
1.55229606778889
1.59519922730688
1.53666184921391
1.50582652937901
1.49434733532064
1.53102488857526
1.58067553492002
1.54091847491953
1.50805371869893
1.54441064132692
1.52254469702731
1.48433299160312
1.46242250885613
1.49907175166221
1.53200975663655
1.49269763712832
1.47959187020537
1.51764162002837
1.60472820008906
1.55098310690093
1.5641782216398
1.62028612154395
1.81156409122135
1.72185123547068
1.76416921558348
1.84678275167723
2.2291188633163
2.04867110033382
2.14785871156423
2.33932626543588
2.53376806837903
2.39595669472034
2.43354168225625
2.57723309995552
2.65480467348127
2.68303051745479
2.72848387073066
2.69488334572733
2.73468072195101
2.77151005822912
2.81971455847591
2.77759500078946
4.87099537488514
5.15838719318529
5.0775365004515
4.76334993771029
4.97735046179186
5.28971856977406
5.20841434788294
4.87196241808419
6.09947232610109
6.04019477068676
6.09919650724746
6.20679523020313
9.05227374216329
9.06330982879987
9.25596940470611
9.27907328729154
14.9494534747344
15.6341617023674
15.803541692286
15.1094322191482
15.3201422286448
16.0162497511952
27.263931151227
158.282751004946
133.124176891485
23.0961967997236
21.1682908921402
128.593592413929
145.057336686621
22.5136585422285
21.6279565876667
141.357646005107
132.821554373667
21.2891909133741
21.0928323691284
125.02438198098
120.591033429637
25.2137728686729
25.6697548369477
113.836139203438
138.613994062936
30.7103865024233
31.732526967291
130.223351739371
132.076004190474
32.1438950296868
32.4358756702847
119.001926830352
133.121375293773
31.547107176415
28.4191290710121
25.0344353003907
27.0321576155587
109.663386282282
104.818837486843
26.9100925590975
26.36430068197
97.4937963728566
94.2039353251598
24.8818708514177
24.4659409838045
97.2588736874634
101.721423703016
24.6255921593322
17.9282796768218
71.4828480761347
62.3284302926583
13.8259368179445
9.47050600797404
50.5700757228785
47.8785331542415
9.02759754681237
8.35401728957464
43.4618357821717
51.6992256080091
10.7749509772212
10.7212689245275
52.9117837066339
50.7312930177705
11.495700210106
11.7751351886659
52.6266030529295
55.1833642299176
11.940944734006
11.0705517407743
47.3697726825324
56.0686703907804
16.3670489667838
13.9271222290121
48.2731322683454
39.0788968589227
11.6238846937397
8.50467229842408
32.0229670570555
29.0203781374525
7.81914331109219
7.02675183857439
27.6782745374376
29.2244399790672
7.8502092907687
8.19665021856167
34.2609570626504
46.4271694963693
11.9466068590703
18.1300683856755
66.307520124558
54.2800378163675
15.8660866473265
12.7242890680383
47.1384747350929
41.2205857164922
11.723264756612
11.5148750950008
44.1651325313713
51.6601579957344
10.1410757063289
9.79159155408682
49.0307960704917
48.9215113764716
9.99851829759286
8.02428538373727
39.8170920305722
44.5502550834764
9.76993255168535
9.1213997380867
42.6498772868169
41.0677225295097
8.66203580080865
8.39212598002019
40.1714213780476
40.8964801142832
8.680381395132
8.4814940918469
32.7581899375581
32.0186565627819
8.73258065155554
9.98995089854427
38.1421689752775
52.3275671326625
14.0793384294762
15.437776317437
66.9663404170972
69.0925845906552
16.2384706891
14.4745220768155
61.2387443495869
61.6820834367743
14.4948649059895
15.5933991747054
16.7211945673694
77.8323217861163
61.1119538561083
61.6452024346335
78.8294031907391
17.018431245148
15.9671383276417
11.4420885727379
11.1654689732636
5.18010462797112
5.78133873293799
5.25099481573207
4.79282126406513
2.39679596161565
2.48559237904474
2.62801296073313
2.51864733974238
2.29301282533937
2.3597857786955
1.71700440588964
1.65565505590061
1.58390314151231
1.64248571234761
1.49101147832682
1.4477406437326
1.4455443347531
1.48201448736437
1.61678889413137
1.55571491849542
1.47356630703555
1.52864508136854
1.57562918553344
1.53718704458131
1.64474648501094
1.6679192081371
1.59750537000124
1.57615924271093
1.69385565959505
1.71686540527686
1.70912368308527
1.65517040930102
1.79584157362108
1.85896337955734
1.71677246232887
1.68356513166415
1.62794564743112
1.67444270918396
1.59387826452528
1.56221014590728
1.63274285037846
1.66546332579436
1.63634834596554
1.59343914637289
1.54921555323218
1.58766897084887
1.5598594039713
1.51843405638588
1.55342754668934
1.59910697505967
1.56396123852732
1.52217317639976
1.50738313242463
1.54791137290237
1.62953624281494
1.57461928211624
1.59185236895815
1.65140690128534
1.833725328088
1.7424879602279
1.79187442074476
1.87746722732987
2.24621136036026
2.06794471046854
2.1842646008617
2.37607590335052
2.41204949145462
2.22008703677599
2.4725664987531
2.62318124047899
2.66803504998821
2.51163451587319
2.55139007229683
2.71202381424697
2.75299116103001
2.58984382321333
2.8664340728482
2.81946659418266
2.86378668248497
2.91809624785503
2.96729231481228
2.90563455050491
2.94884372827914
3.02012575846651
5.40377915956247
5.07856215000119
4.97042112610382
5.3204314124754
5.49771425351883
5.16944493080899
5.05218273085196
5.41024659645462
6.15116774469195
6.32174311712586
6.43616300103531
6.19510740289934
9.45775041414026
9.53284257202442
9.80308876696664
9.65478465465115
9.82731854527041
10.0718415293277
15.5749101126288
16.2636274562834
27.6647090683339
170.249617762338
141.643717188109
23.5892459671181
21.4891545199418
136.142444679782
155.225208827471
22.786908080827
22.1626832821725
150.563611630701
149.658184616044
26.860160684839
25.4914836339786
137.589433365844
128.418106270671
25.145980081437
30.9149155679021
157.114073283707
143.132875687421
31.6804822375422
31.57246988866
134.238895071341
102.887604555597
27.2772865982347
27.0594579814011
102.868430398084
96.1097766998348
26.0474326640387
26.2908500596606
104.333793194415
101.965478696448
24.9626672992659
24.5959217514167
107.505153555332
103.614683068906
24.4491011512709
22.2282945267612
99.3055799381519
99.2625722449462
22.3325366043327
18.6066155327012
74.547095011869
66.3276651382994
14.5095701762516
10.0608115956074
53.2628719425241
47.1166591024168
9.07677120550066
8.65873526323226
44.9571561090649
6.2253936185341
9.53366011829169
9.50686876802235
11.1295784480846
55.3027981171927
58.8160733959138
12.1191389290635
17.415686970911
68.3302120541464
63.7794721128099
15.939228203827
25.3747633187488
88.3387007001653
78.1503619747865
23.4765632601994
18.0527003573705
58.5774055745068
45.8361306514371
14.3857746905206
10.0554724026715
35.4581115321404
30.5212299502683
7.9171311629513
7.25466284900859
29.125209266337
30.4239037295218
7.97473923834917
8.41150040541124
35.6319391753239
48.7952751618182
12.053421413374
18.7358655645516
71.8882506668264
91.424088799712
24.4673597464211
25.8258403491041
119.808217229745
114.07619983264
25.2037792508665
25.4790920447737
110.633669731454
101.298791266087
25.0597291435173
22.8844812159099
81.8882930096938
59.6729892338137
14.4126715527586
15.2724542626128
60.5987440669268
52.9325253473908
13.581752508423
15.3310019437117
57.2595570138931
48.3282858688557
11.4630435734341
11.8070198972289
48.8831562086188
38.5781055106319
13.4614708931369
14.5361259019941
37.2998571280142
44.4345236998118
17.206257622288
22.093005208422
64.6770877756302
84.2375965013676
22.1312293829392
24.8326720180243
91.1231520843145
83.3956623736778
24.3574140228132
29.6921626431384
33.5786451870706
133.307074019249
92.1626146511711
88.7922385198425
126.649983616337
29.9567479158741
26.897256113756
18.0098519155735
17.9039219116951
13.5915676417966
13.1364298665851
8.71913197115203
8.47645798758658
7.82921710441566
8.30890155137563
6.98556930443261
6.55847608104549
5.33538277326622
5.6758595134641
3.92639966232561
3.79726478168979
3.66441558946497
3.77235024318346
3.54338595140636
3.44463922185074
3.21854277197972
3.30586048805956
3.08041775061398
2.97667530817025
3.04416324680613
3.12604408499682
3.25638621771228
3.14624500588906
3.23073678679235
3.33382320158387
3.46867081384194
3.31645904784138
3.34736286582694
3.46938115146431
3.53746427144374
3.36342083995717
3.2784809339595
3.40873295278424
3.1206459930027
2.99456144173353
2.82798003368871
2.94333517588334
2.52134647195612
2.47259448060681
2.26340154498182
2.35514539205906
2.04804313529179
2.00393088947952
1.85942971538847
1.91383190002907
1.75994438833991
1.72540208391223
1.65885352642462