/*--------------------------------*- C++ -*----------------------------------*\
| =========                 |                                                 |
| \\      /  F ield         | OpenFOAM: The Open Source CFD Toolbox           |
|  \\    /   O peration     | Version:  2312                                  |
|   \\  /    A nd           | Website:  www.openfoam.com                      |
|    \\/     M anipulation  |                                                 |
\*---------------------------------------------------------------------------*/
FoamFile
{
    version     2.0;
    format      ascii;
    arch        "LSB;label=32;scalar=64";
    class       volScalarField;
    location    "1400";
    object      p;
}
// * * * * * * * * * * * * * * * * * * * * * * * * * * * * * * * * * * * * * //

dimensions      [0 2 -2 0 0 0 0];

internalField   nonuniform List<scalar> 
207032
(
83523.5971700168
83537.2242760257
83558.8335170577
83536.2235390271
83522.7637110684
83512.8613451853
83500.9096044149
83492.1098812766
83496.0603407486
83507.5308216929
83507.6036965195
83503.922466021
83504.1878306768
83512.4568202477
83512.008481868
83520.2481783827
83521.7638529207
83520.7496383536
83521.0681667806
83531.342984973
83539.6704902785
83544.1441629354
83531.3039822298
83522.835370856
83523.0669558435
83530.2679530546
83529.5923214671
83531.7268704093
83537.3224852069
83536.6864774356
83532.1385576556
83533.0033219141
83534.4997431737
83533.2450449154
83531.8300381728
83530.0012073215
83536.4622151853
83545.5880686943
83533.0654320093
83533.0343073039
83546.1242383184
83530.8230479735
83528.3243055693
83532.9540028512
83547.9186996419
83489.9440214789
83502.4868240075
83488.6891141375
83465.7754974467
83471.04711413
83486.0501633293
83484.207062
83459.4247333646
83555.4955954497
83554.3389933597
83517.640213799
83509.8805070831
83502.4960955693
83502.5067601098
83503.0441194129
83502.4739342835
83501.525899992
83503.1063675841
83497.1920947399
83496.965685524
83491.5420722567
83490.0699845792
83472.1514531684
83488.729477254
83507.6543049502
83501.8001040098
83522.9937692959
83563.2732289639
83547.4017018142
83526.637925142
83509.9613593361
83513.8413196496
83488.7191850879
83478.5665643087
83484.4966788288
83491.1900096488
83495.761963336
83494.6082850965
83495.3727277435
83496.9503639329
83497.0275064908
83496.6354887198
83497.968555125
83497.8104394397
83499.7262887122
83499.9646273391
83498.2933930077
83498.7967598491
83501.8962111431
83502.084590505
83508.8491499114
83507.8216625517
83516.2553888839
83515.8420610736
83524.4693418629
83525.5016711025
83533.465967355
83532.6712927155
83540.5960135833
83541.0709536768
83535.577549288
83534.978190918
83541.2278437401
83541.7322009894
83536.7149569514
83535.8908890107
83533.6161639674
83536.6010038341
83535.3901030687
83533.266334495
83523.3390259505
83532.7416175456
83533.1147612633
83537.0858972987
83552.771091023
83536.2777833625
83537.2478425984
83547.1086150679
83544.3903792032
83539.5116266105
83539.3006742019
83541.4180393883
83538.656115115
83538.3487340597
83537.3410417572
83536.7146764676
83535.9638331981
83535.7065222857
83532.1838422523
83530.8925253239
83529.5255582895
83528.403246798
83527.0285598369
83528.3589760267
83529.0259398011
83526.8491575552
83524.2873216822
83531.3726425176
83515.1602355956
83519.3596650314
83518.2531375959
83507.9452542722
83548.6704184753
83512.9034903566
83505.887759945
83501.8970380369
83498.9581101982
83496.8941387726
83490.5902726102
83488.5806319239
83477.3551524455
83487.3761844429
83499.4729732242
83506.924752733
83524.4207682323
83503.5704821087
83494.7402754784
83510.2596189533
83498.8260902294
83495.417221051
83496.8211821466
83497.955960654
83501.1213298168
83499.3295167414
83492.8020637907
83490.6205425544
83492.8085549741
83492.3329894679
83492.7800054761
83491.2237753765
83492.229865208
83492.7635741579
83495.0278712863
83502.9684262853
83490.2106478943
83488.6696614883
83498.2212154649
83492.6996550088
83490.4998934598
83491.0436200503
83491.6780670489
83493.1596758977
83492.825222381
83495.1655214073
83495.3733902483
83497.5143487366
83497.6024006402
83498.1764374255
83498.1007111004
83498.5211187149
83498.4391980013
83496.102530959
83496.2827934824
83496.4181914292
83496.2445811805
83496.4031416988
83496.5784929088
83496.6925768975
83496.5676440772
83496.599819853
83496.9609332617
83498.1871236333
83498.0026025638
83503.1831649488
83503.0405492212
83511.0212114189
83511.7575859778
83518.086492476
83518.3271943253
83517.0721532554
83516.7572304108
83524.9540352941
83525.5278281414
83535.1504782221
83534.5530632907
83541.5980460917
83541.886069968
83549.6871974546
83549.1468621786
83554.1623336975
83554.7399753355
83549.8225794187
83549.1024336841
83552.4747935737
83553.6986950818
83549.583612564
83548.540246312
83543.2046224538
83543.067563303
83541.2768660147
83541.8297069815
83541.4793060734
83541.0089840791
83543.8502111894
83543.7958233685
83538.7343269826
83535.3291081623
83538.7892108528
83539.8319206903
83542.6029093152
83541.2197613561
83538.3202387498
83541.4992115167
83538.8811505014
83538.7190124426
83530.8851743512
83537.2054322937
83542.1104025275
83538.9340583899
83530.8569917123
83518.2921335048
83504.5332280501
83489.1890223083
83481.5063648715
83473.284032342
83476.6500662426
83471.9738622624
83479.4428907755
83491.8519009716
83506.2506731178
83502.2411130353
83493.03263262
83496.6663385356
83493.5256715007
83505.472705099
83502.9575033244
83497.2803555145
83484.3745858595
83488.7622669216
83494.163303539
83492.7000999232
83490.9066053233
83491.3120465262
83492.065173294
83491.8614930639
83492.2789172186
83491.2877273223
83491.506173127
83490.2904275015
83490.7575777205
83483.9362610091
83491.5700292791
83489.3856380178
83487.6214807235
83489.6982592357
83490.165934618
83489.0649790115
83489.0472204412
83491.0315975691
83491.0664774387
83493.1685032729
83493.2317935344
83495.2805442653
83495.0691697266
83493.0760819995
83493.230604423
83494.3705641704
83494.5848259959
83494.4161271373
83494.2234922236
83493.0854042461
83493.1300182736
83492.8626117645
83492.7476506822
83491.3389988965
83491.630897262
83494.8661980848
83494.6514129427
83496.2915050393
83496.5206431664
83501.2195339577
83501.3766687948
83511.0106841955
83510.0823678815
83517.9636450511
83517.7324958503
83518.5542494664
83518.7925918565
83529.3128342832
83528.9613381856
83527.4331795242
83527.7871461397
83539.2720534718
83538.7339115697
83548.6316769377
83549.2773953391
83546.0718551489
83545.4326400382
83553.4380091895
83553.7821279811
83561.2296534879
83560.984024415
83568.9195212185
83569.0989652195
83562.521932005
83561.9273639734
83567.3553303742
83567.7570715827
83560.4812765017
83559.8116647419
83564.6630702956
83564.5698669489
83557.2835898205
83557.3868476486
83550.9282162114
83551.3799192696
83546.3444474909
83545.7882676938
83548.3144750332
83548.6695275442
83545.8008257472
83545.4656928119
83546.7321542946
83546.7868508139
83544.2936240137
83543.7590826412
83541.5863533223
83543.6165260942
83545.4282101238
83554.2106731357
83544.7470882312
83543.4126364856
83544.7738226897
83543.6133200921
83543.8587094528
83544.9926083755
83540.3900161584
83538.1772968137
83529.3226648337
83537.7402143099
83542.7439736531
83543.0689473512
83542.1364767826
83542.4423855671
83545.5642534662
83541.5792046678
83537.5493342977
83532.7817833909
83535.1967914216
83536.3982201051
83533.3495358257
83531.3127543695
83533.5211008186
83536.9660740916
83540.0025308929
83540.5262983074
83530.3678252825
83540.0633977881
83534.1358412548
83530.6846776535
83531.1350308325
83529.7646575486
83519.5245190925
83520.0687769123
83521.9294150732
83521.0496057746
83522.8632661601
83526.5648522388
83519.5201446256
83516.5552318568
83520.8700242825
83526.7264551195
83514.1129924236
83516.9646950222
83515.8052180641
83521.4618372118
83523.6778035269
83514.9274839481
83514.7846749025
83529.5487712317
83515.1388171493
83509.288443676
83504.4106932356
83513.3349599979
83502.9464204111
83496.8759054814
83485.4024155952
83482.8269612909
83480.1713927097
83479.7830611452
83467.2186699835
83463.1597393243
83442.5657265701
83456.0224891901
83438.3712937325
83432.2951873758
83468.2909902705
83468.4061002308
83480.8202108482
83475.4753448405
83493.0038466644
83489.684905597
83491.1553250774
83492.2057141416
83488.7554567127
83488.3105216187
83490.792985536
83491.7968927393
83488.9455141498
83488.7795934225
83488.6451778358
83488.3476251194
83484.3068346088
83488.1431507899
83487.3825145348
83486.8231585364
83484.9156183103
83485.2465007523
83484.8531845704
83481.5396846515
83487.1022580113
83487.2520409855
83486.1095553445
83486.7332040812
83477.1304148473
83482.2310228055
83483.1083210599
83482.309831581
83485.2005248781
83485.4014060277
83487.120816009
83487.0635887696
83488.8808427251
83488.9326638162
83491.0529795195
83491.0818181482
83488.5957378856
83488.9416399104
83491.7600560216
83491.5566691044
83492.9097732906
83493.2790555359
83494.3000580819
83493.5901600947
83492.8918478303
83494.2779112835
83488.8369671378
83489.0803415825
83488.2027700535
83486.5248120844
83491.4092485446
83491.9858042908
83495.8531923814
83496.1133423614
83506.1239971276
83505.577371679
83511.6413122446
83511.2945273109
83515.55890373
83515.7949001705
83526.1229450881
83525.6104725148
83528.2440835884
83528.6737875242
83542.9239048349
83542.5088187269
83542.3613500502
83542.9355050194
83556.6886496877
83556.1782402498
83553.395042237
83553.9988516701
83564.3146993139
83563.9610377626
83558.7442745966
83559.0516589636
83568.384765665
83568.1846652728
83577.5135827903
83577.6017256903
83587.2296482838
83587.3084549019
83576.6408911887
83576.6571365901
83584.3515485792
83584.5922578464
83574.0514609146
83573.7421308315
83579.6279185723
83579.9678988193
83569.2433828247
83568.7437407187
83560.8303021988
83561.1567299523
83553.8676229051
83553.813962059
83555.8533866948
83555.9613375823
83549.1805527586
83549.5131823156
83548.9884457892
83549.2096595733
83545.7814704521
83545.9217970343
83547.0463731013
83546.368356682
83544.5460577533
83545.9948481387
83545.2694101172
83545.2836685895
83544.7063477327
83543.9896530053
83543.027307478
83543.4559913284
83540.9660644559
83541.4873148395
83546.4330728424
83543.190858283
83540.4912623109
83543.4866663759
83540.6071021869
83537.452737213
83531.2451918591
83533.6035318958
83523.2231178983
83529.6207970785
83523.5813524449
83520.0139733366
83515.0497707427
83514.6612416924
83502.3215437039
83503.0044052161
83509.6979575255
83508.8435701838
83512.2354126729
83512.9171536307
83504.6865942204
83503.8084125103
83509.0167427545
83511.5578721401
83518.2802385206
83514.2940646309
83505.0392785781
83505.1640370134
83502.8978269275
83500.154840912
83492.8490029821
83492.8809311522
83487.5076081713
83487.4994931085
83478.0390244723
83477.0442317743
83466.7510678748
83466.5592004649
83454.7351777002
83457.1734935128
83450.2151300985
83447.0729993099
83429.0932961288
83425.3207766064
83429.1481446005
83420.5477950187
83407.3555737175
83408.3479122233
83384.5833643318
83385.2916814144
83428.5256443502
83428.239333636
83458.4373415929
83459.5578796462
83474.1281316223
83471.7129767573
83482.6080410669
83483.1610852706
83479.994942998
83478.6867347388
83485.3155594711
83485.6942398937
83483.5203113675
83483.0361705041
83487.8472048743
83487.1984158281
83485.9927255168
83487.1562953846
83483.5955652859
83484.3133139599
83483.2361652984
83480.4514388378
83479.6398659183
83482.8862269846
83482.830296187
83481.1285659106
83480.9690381278
83490.4006255173
83486.6033691649
83484.5633104354
83487.5319299669
83488.5053376376
83490.6975986685
83488.9741167431
83487.1222987539
83487.9237455992
83502.3793836571
83492.8003289516
83504.053674022
83533.1660547471
83538.5006298559
83497.7160868759
83473.6882571697
83447.4608230568
83460.8689699046
83478.2731864374
83482.060860586
83478.6208600946
83475.3572709817
83468.6309902039
83479.5759834552
83482.8614766564
83484.7789922032
83480.9470984266
83463.8347490011
83476.8167306128
83476.6538710979
83461.1986444372
83485.8074560859
83486.7000648872
83488.2183182179
83487.0389906015
83485.7343738623
83487.6276852646
83488.5782329637
83485.9830514456
83489.9853694202
83490.9164236178
83490.4822850067
83490.2456415135
83494.0483990437
83494.3799173462
83500.9476086581
83500.056060096
83506.9144361258
83507.4294187756
83515.9079767937
83514.9298730676
83519.8064057693
83520.5626489275
83531.9401765138
83531.1824038379
83539.4163898806
83539.7948286048
83560.5561052792
83560.666464082
83564.7154125449
83564.6916301336
83558.8372675616
83558.5152986429
83571.4790283385
83572.0415042884
83568.5518008186
83568.2479130407
83580.9441012143
83581.0494768563
83575.0496669175
83574.8379923703
83586.286292202
83586.2950800303
83598.1715603484
83598.5398565529
83611.1835168281
83610.3973560768
83596.9913086558
83597.3869208185
83606.6967603883
83606.4173157224
83591.5905982291
83591.7859864429
83592.4389245756
83591.9353170511
83593.8167054544
83593.8981705034
83587.1593345026
83587.199618673
83580.9880531778
83581.053421879
83575.3090436288
83575.3006373716
83570.4510123627
83570.5356912739
83566.5938908453
83566.5053332865
83562.7907110623
83562.8605638516
83559.7964619035
83559.5109345586
83559.9087875435
83560.5782895143
83566.9053613285
83566.3677992557
83569.237810242
83569.8301169332
83575.6731887837
83575.1639368973
83579.6849645993
83580.2358371286
83587.7283732872
83587.442140091
83587.4706414777
83584.4605841072
83591.2893679898
83591.5887183702
83589.8242737325
83588.8722132892
83588.2568624178
83586.9572671772
83582.3995877797
83570.1622566482
83556.6063984108
83532.3592731142
83522.2648225197
83494.3486821595
83463.4285900813
83449.5261328833
83428.1337963565
83421.8844595723
83413.7741529032
83413.9185125364
83448.4844290765
83450.832193357
83469.9873325643
83467.3999417825
83463.2539343619
83465.6588003471
83477.0025956378
83475.6114449276
83474.8281106207
83475.3820515777
83481.7084039857
83481.6058955769
83481.1604959467
83480.7609490047
83481.2254522317
83476.3103336069
83475.4220650469
83481.8093474264
83484.1475738114
83485.1193501394
83451.6655933045
83476.4258745444
83488.8259156804
83473.9377490041
83462.5397080589
83491.7353470571
83498.698228279
83483.7364581249
83520.9884548267
83507.1406510509
83504.8029409917
83506.437669128
83505.0265462341
83505.6378662107
83476.5767582101
83493.9452326349
83494.734554563
83483.51020424
83528.742570498
83522.964720322
83514.9011154208
83514.3809661698
83508.5151304949
83509.2237201007
83513.2016284747
83512.3273747315
83523.2127999684
83523.8100132504
83533.4297004446
83533.2025061861
83539.0584854718
83539.2696768128
83548.3546748822
83547.9564079501
83557.3717987939
83557.4379461
83570.4557954064
83570.6743192001
83581.4338001977
83581.3393403636
83588.0322678629
83587.9690829069
83589.908884786
83590.1753638177
83590.4246908243
83589.9196635406
83585.6905388321
83585.9815231313
83602.3923231461
83602.5120162252
83595.171163523
83595.0023122694
83609.7870450828
83610.3800923005
83626.0403560181
83624.9319584416
83639.8259068414
83640.3672172292
83622.610429065
83622.2274485118
83623.2688358922
83623.6483293741
83626.4768773217
83626.4793673874
83616.9395900502
83616.8876391664
83608.9435801571
83608.935439125
83600.4298289947
83600.4255789388
83602.5636935508
83602.5802934912
83596.0834453889
83596.1213024319
83588.2938910423
83588.4468479039
83582.5877583872
83582.5704146471
83576.1541961227
83576.3582795554
83571.6935494939
83571.6184105379
83567.0847027296
83567.2382592833
83563.7713387472
83563.8071070991
83561.6089953595
83561.1180143478
83560.0195137564
83560.468584453
83554.8863788016
83554.7183359466
83554.8967306477
83554.8477345563
83550.0827144467
83550.4083684067
83551.0360228426
83550.723352826
83546.4635798107
83547.2591920014
83546.1152704618
83545.2749664127
83541.7955594686
83540.5328018168
83542.1570693882
83543.1988621947
83542.0003498718
83541.0057496374
83539.4815086357
83540.7255035839
83537.9021007411
83537.0758691491
83538.0726369673
83538.7640978675
83534.7972985249
83534.0207228947
83529.9936961107
83530.7409264509
83533.3813050154
83533.7754930109
83525.0069453031
83526.7556466412
83517.728010442
83509.0582556747
83525.483258656
83524.1520686684
83528.7617499848
83522.177896414
83506.5256121309
83491.1401130484
83490.4452211898
83490.6359965765
83499.8190774619
83498.6191811166
83486.680080194
83486.838605567
83494.8696383544
83494.3468855385
83499.4313345619
83499.8606521717
83499.4445996351
83496.0753890774
83489.1736397996
83485.582355588
83456.9451341311
83438.9195678452
83393.041872806
83390.7433559615
83402.3810630506
83356.5608115497
83353.8489794453
83331.7733347676
83327.9129876284
83324.2722700454
83328.98686421
83360.8481033581
83355.8925565332
83338.5155410763
83342.8104105348
83400.4940901791
83401.6877741801
83440.3952714508
83441.7726212675
83432.9443390485
83431.0033683485
83466.6453861501
83464.9833955569
83470.469191173
83469.8919010542
83487.0998553923
83475.021004074
83475.9519392996
83477.1642591386
83487.6605353778
83479.8681175415
83482.7497614883
83483.7916302326
83466.9172671
83480.9342592444
83487.3228523034
83481.8637673431
83526.3856777315
83496.4473039891
83500.3422149605
83493.1163347409
83532.4371216382
83517.1924990747
83523.6402945979
83550.2358749656
83544.3989762418
83519.9802834507
83512.5452115149
83524.6550570903
83516.1278452662
83515.9158798791
83512.070295206
83511.6265731637
83505.799749535
83506.6006764507
83506.380594976
83505.0194150678
83507.4761361018
83504.1152547512
83500.0318299945
83501.7023052162
83503.3431841448
83503.5537529466
83502.6730933257
83502.3234029277
83503.2866175531
83504.1555169924
83506.6303260897
83505.5427693177
83507.6385039892
83508.4321919259
83518.4141012543
83517.8352375229
83525.4726706866
83525.9763357891
83528.7963371932
83528.585817269
83538.395188414
83538.546861016
83548.5585085777
83548.5557118211
83558.7404558256
83558.4382963558
83569.165373494
83569.7851791426
83585.3547191552
83584.7604485093
83599.430545447
83599.757230699
83607.7558598488
83607.6506227775
83610.6538352891
83610.628589811
83609.2823679806
83609.3694640044
83628.5310948902
83629.7942485606
83620.5833370985
83619.6051032007
83637.630373853
83639.4005560547
83656.6546706258
83655.61358134
83660.1125900937
83660.6864317745
83665.3877732545
83665.3930679797
83654.4917426021
83654.4274798245
83645.4498295915
83645.4282495829
83634.7123926651
83634.5781182541
83637.3721146953
83637.213556894
83629.3195566345
83629.5728420825
83618.9853707753
83618.928027035
83611.5346409599
83611.6384528144
83612.0856030402
83611.9497824071
83603.5151051692
83603.4647977091
83596.8564551351
83596.8682222614
83589.5530041193
83589.4368689758
83583.5322519611
83583.5614919072
83577.4400444657
83577.2744626175
83572.3496275917
83572.4653359091
83567.7995399719
83567.6098493208
83563.7698772037
83563.5865189837
83563.8454370646
83563.9126626699
83561.1067180901
83560.7443887398
83560.0443574594
83560.1908386288
83560.9074307794
83560.6227908037
83559.8170809466
83559.8963063626
83555.0078827093
83555.0218542018
83553.9570022997
83554.0230345894
83549.7004309748
83550.0396858975
83548.6001805464
83548.3078274782
83543.9619078651
83544.747448044
83543.2875728402
83542.527974187
83539.5777457971
83538.5617255286
83539.8937777197
83540.7714583048
83538.8262130096
83537.6068310276
83536.7586369241
83538.0363218889
83535.1862365156
83535.9714973968
83534.6801883361
83533.8389241365
83531.5104086756
83531.7690670478
83534.8773304183
83534.6651169486
83536.5006554798
83536.9455372355
83533.2692198838
83533.326525007
83531.7365656187
83530.9698302812
83531.1102623648
83530.681308955
83525.407581123
83525.8060207613
83525.4429369694
83524.2881414338
83518.2445789802
83520.6150917112
83506.6267401232
83495.5662948058
83488.5090532443
83494.260600478
83479.5464561334
83478.6478677845
83462.3353366906
83462.7128356251
83476.4174148423
83476.7413923351
83474.0884344803
83467.7144839043
83453.6602208557
83445.7351989144
83440.3123129418
83411.0221416259
83390.0394671445
83358.2954677825
83308.3576435542
83318.2867054929
83326.0262180924
83321.3737655106
83312.0965142093
83301.6595228827
83303.1473318369
83287.7039700961
83292.0611198652
83312.5256054631
83314.7836845202
83348.2512540879
83341.7600825223
83380.3809947905
83374.8993793749
83382.650445106
83388.7540197515
83386.1448981359
83382.8345967078
83417.0699179921
83415.8995113934
83435.1643549896
83431.3164268459
83461.2545424366
83458.3806319909
83458.0371782159
83460.0507207007
83465.5019942076
83461.5859795935
83462.9555246532
83464.8614058735
83484.9918754819
83479.7328961029
83488.3282339319
83498.8607338613
83492.2729301101
83485.3983149907
83487.2930417706
83489.8002755726
83487.2145624652
83490.6608385998
83494.6729423674
83490.8491628508
83513.5821598484
83505.2320908228
83513.6972633006
83531.7980357328
83507.7492146759
83504.6991227377
83500.1449743667
83509.4358746533
83501.9827003066
83497.5532179883
83490.1226540229
83488.0033928452
83494.9284693539
83494.1667342551
83497.3812354813
83498.2607225397
83497.7670355205
83497.2380159648
83489.6964090242
83490.7636578239
83493.0696182538
83491.9044367397
83498.9108830057
83499.8397529369
83507.9445608148
83507.4420989029
83518.2235562516
83518.7978810176
83531.5955732241
83531.4607382513
83544.6129652753
83544.6242300083
83551.0934163729
83551.2259829403
83557.2975321789
83556.839614245
83580.1812400846
83581.3130943124
83601.278313814
83599.7884193512
83617.9287764765
83619.6445082461
83629.3981921022
83627.6888788239
83631.0562023255
83632.5776251548
83655.3059577955
83652.4803225024
83648.5799340245
83650.9183548496
83670.4015390396
83668.8147754123
83675.0252349002
83675.7758602682
83681.3462846778
83681.2672622844
83672.1909873349
83672.1083640708
83674.5336843039
83673.7331173292
83668.1348382426
83668.9450885092
83656.8774909066
83656.5058870732
83648.630872364
83649.0928236174
83648.4191295608
83647.72781278
83637.0667844706
83637.4732479867
83629.5313275971
83629.1687999203
83619.4526273301
83619.5971291131
83617.7947983161
83617.6051893415
83610.4057771881
83610.6075402811
83602.829252127
83602.8112333167
83596.3108805617
83596.3664842985
83589.6490670787
83589.6603771559
83583.696363361
83583.7397913849
83577.8890736055
83577.926044981
83572.7286375074
83572.7028692866
83567.8203301234
83568.0358867818
83567.9862280348
83567.8161248266
83563.7890819045
83563.6521452036
83563.6726462792
83563.6952926814
83563.2663977434
83563.1603655176
83562.831490251
83562.8359215153
83560.2185818015
83559.9296209389
83558.7941386169
83558.84584881
83558.8536533522
83558.5553666534
83557.2846607025
83557.3285007752
83552.6313734014
83552.4963912756
83550.8237200099
83550.9555654512
83546.7630949723
83547.0638058444
83545.1084285846
83544.8468932641
83540.5926590845
83541.3023445527
83538.5876328989
83537.9289633346
83534.3450478978
83534.9704165728
83532.1993434295
83531.3790508799
83529.9076191509
83530.8473573672
83527.8246520505
83527.3570156274
83523.3119142743
83523.1267827342
83519.6810786685
83519.9544963206
83523.7153243007
83523.646673578
83527.672041149
83528.144213715
83522.928120826
83521.8483524334
83525.8648412185
83528.659918191
83525.0427186259
83521.1585703664
83516.4369763317
83517.7791287586
83540.3993683704
83526.9083785463
83520.6769543207
83511.2011146569
83532.3393508942
83524.7071657551
83521.3682364244
83515.4882133831
83520.5517825251
83528.350261402
83516.1808463704
83517.2796359436
83509.7709080111
83518.6215177062
83506.4519522542
83500.4624372384
83486.0801916858
83484.8162951255
83483.2508733078
83479.3424120439
83466.0392365059
83462.8842857612
83446.4902092036
83447.2201358812
83435.895653469
83436.0960382822
83450.5095357159
83451.7811615868
83436.6517413962
83432.0772244954
83433.0735624851
83427.0481827132
83406.8905389244
83410.8947722114
83406.008595278
83400.3277726121
83368.9364629888
83367.2341412603
83346.1795679667
83345.8413333773
83332.8160303863
83328.3337239716
83303.1615162592
83309.8626837753
83308.2382717028
83307.0301254879
83325.2236244747
83302.6417273993
83295.044255739
83307.8582223189
83324.2150952514
83309.7697190858
83300.6891783731
83310.8021665624
83301.7257990897
83293.2923459104
83288.5274297986
83299.9695397791
83291.3895798489
83281.416007359
83272.9228390204
83279.0436902629
83291.6193254817
83285.8913480303
83312.5748185238
83322.1829504738
83320.6513240654
83329.7558794681
83326.7856094481
83317.0176736857
83315.8714394612
83316.7656180223
83353.8076779409
83354.038345127
83347.3951629823
83347.7123470923
83341.1574970809
83340.8742872609
83334.2618076619
83334.3095082531
83380.2929185623
83379.3558033181
83414.6309867101
83415.7723580561
83442.1463177357
83441.8580227891
83444.8186211136
83445.0907471659
83452.8978171973
83453.4045110005
83459.6690166806
83459.7152168834
83468.1324369039
83469.0110356921
83474.0082953759
83473.4614104667
83482.2115781292
83485.0421503191
83483.9745473531
83485.4788882766
83488.417145158
83487.1207976031
83478.0862730897
83479.7766377739
83483.7936634286
83485.2926037443
83482.2852699317
83480.8631382019
83467.8236901319
83469.6082818002
83473.1855620082
83471.4349954315
83481.7639585216
83482.8835054322
83496.5922462901
83495.8715629702
83513.6991882054
83513.9687500953
83534.9933893539
83535.1007395067
83532.7934749686
83532.5171565299
83560.0088395667
83560.7625285156
83591.1353424404
83589.7370721194
83614.4234204588
83616.4251932595
83639.4132046512
83636.7269168061
83648.8541775806
83651.8025063815
83672.1123804854
83669.8877525995
83674.2069467016
83676.2403240026
83685.786907571
83684.9286950419
83689.3920582055
83689.7943349322
83685.7008044762
83685.4816381006
83684.4123134443
83685.949869463
83684.0704256909
83682.6933524284
83676.4675081741
83678.3718514383
83671.7317214476
83670.3006720567
83665.7741107747
83666.9258689994
83656.2956330164
83655.4611217097
83649.7955192069
83650.5721948693
83643.3830416044
83642.7351822163
83633.5222613302
83633.9326678617
83626.4299155245
83626.0812780908
83620.8584523295
83621.2237907244
83614.0364125037
83613.7957465916
83607.5102109129
83607.7263973784
83600.9898627147
83600.8854417735
83594.9066812776
83594.9990102799
83588.8854113274
83588.8593181856
83583.1648309702
83583.2050473061
83577.7567081938
83577.7693027052
83572.6616563807
83572.6321503075
83572.2072177129
83572.2600526524
83567.7406290749
83567.5471146016
83567.0851487604
83567.2254708423
83566.5491228365
83566.385308217
83565.5144064433
83565.6088678618
83561.980795296
83562.0650369405
83561.3226954526
83561.3153314222
83560.2492468968
83560.3375691123
83559.4108539851
83559.3999890425
83556.8260192125
83557.0963716177
83555.5096791772
83555.4764432587
83554.9113765409
83555.1914637829
83553.602129206
83553.535720345
83548.9373220091
83549.2079814202
83546.8312551028
83546.4584858411
83542.4658565887
83542.2049417708
83538.6383886099
83538.8640183415
83533.9987964863
83533.8672113813
83529.5777142592
83530.1842492189
83527.3312786901
83526.4635114572
83524.825357017
83525.9350384034
83522.8210152626
83521.9612288938
83517.6091127194
83517.7574284751
83514.1049651455
83514.6674088737
83512.927181229
83509.1138184825
83514.5554683481
83515.2030540139
83518.3786657133
83518.0438844619
83511.7092928195
83511.7712367438
83506.3577744895
83506.519565411
83509.3767536536
83508.6489602466
83501.5574048561
83501.9717245016
83508.7563957581
83509.480486595
83503.9888386323
83502.3581239187
83510.4641758182
83515.5407294559
83503.7108307201
83499.9104695311
83493.2024718085
83498.9710036027
83489.9453264992
83486.8014093002
83478.5934846507
83489.2237357248
83466.4611427641
83468.1931094183
83452.3618468043
83455.6121375022
83431.052274471
83429.1835575026
83414.6151978614
83416.258562903
83399.3396986645
83396.5730835741
83420.6116129393
83423.0795314648
83415.5509888525
83402.3224255739
83372.7993016948
83379.1475482127
83380.8922776322
83356.7050845959
83354.5546025029
83330.7539862334
83333.9927489371
83323.934675268
83323.2436928274
83305.9041510786
83302.525916838
83307.3394689923
83301.1161576099
83297.7178354496
83306.1002585759
83288.1943740883
83284.5619299333
83278.8011647833
83280.4751921639
83281.7169210911
83276.7492159804
83285.9148009324
83291.7941810191
83286.1425509368
83280.4143590327
83277.2213166041
83283.6255026533
83278.5563484639
83272.2993116594
83265.3685944981
83266.5522285668
83261.4630650539
83261.6740026354
83256.8313211618
83256.6903329093
83262.7726308701
83260.2337973867
83264.1424186863
83265.4038472092
83267.5699165356
83259.804947463
83255.4280796597
83251.9645849553
83286.7328459509
83283.2613124261
83270.0166368988
83272.3427878961
83253.1593586843
83248.6642903567
83228.3639808653
83232.8967164696
83283.7609805951
83280.4037932272
83265.7694727555
83268.6422263176
83250.5510487384
83244.9737211233
83221.0612430568
83230.8295889202
83210.5232483856
83199.372132354
83181.0942005318
83188.8673838994
83216.5138107907
83210.5738200186
83207.6536456564
83209.6106485082
83207.292866801
83206.0614270135
83206.2759547841
83207.0349516062
83207.7501506941
83207.0659585107
83278.8641409734
83280.348166679
83281.1780375544
83279.8077833778
83283.1048825266
83283.4783904713
83308.6131063462
83309.6016328496
83315.4865061861
83314.9437710546
83324.794340152
83324.9314010941
83338.0116985348
83337.7472128378
83354.8112708847
83355.1352002361
83376.5251487193
83375.6384268655
83398.5677055606
83399.7410657384
83425.1129326148
83423.5430919841
83446.7913744385
83448.5062913856
83471.1302124372
83469.133653133
83486.939011183
83488.9619932082
83504.9669663131
83502.9350262816
83514.3704300336
83516.1679472349
83527.1047074838
83525.6123478758
83533.5509766942
83534.5398760248
83545.4989029186
83545.0837301621
83558.2495867956
83558.2339329711
83576.9979075154
83577.0080729378
83601.9100828281
83602.3791982888
83624.9959781572
83623.9557937193
83641.5513681686
83642.7185022696
83647.1029905026
83646.0032002986
83645.9531354113
83646.8360674057
83640.6669049084
83639.9319979584
83634.4635173701
83635.0828553044