/*--------------------------------*- C++ -*----------------------------------*\
| =========                 |                                                 |
| \\      /  F ield         | OpenFOAM: The Open Source CFD Toolbox           |
|  \\    /   O peration     | Version:  2312                                  |
|   \\  /    A nd           | Website:  www.openfoam.com                      |
|    \\/     M anipulation  |                                                 |
\*---------------------------------------------------------------------------*/
FoamFile
{
    version     2.0;
    format      ascii;
    arch        "LSB;label=32;scalar=64";
    class       volScalarField;
    location    "1700";
    object      k;
}
// * * * * * * * * * * * * * * * * * * * * * * * * * * * * * * * * * * * * * //

dimensions      [0 2 -2 0 0 0 0];

internalField   nonuniform List<scalar> 
162506
(
0.0150874385139607
0.0150914168371227
0.0162984835760857
0.0164061579030409
0.0167317962644612
0.0165728459699945
0.0151721383343946
0.01512789358547
0.0164311372424177
0.0158106850123061
0.0153535826304184
0.0150314499853336
0.0150685530799347
0.0150490511193231
0.0150132784136163
0.0150111125668
0.0153245830267755
0.0157351452660232
0.0150448998484997
0.0150920088383235
0.0150561205550847
0.0153412033549293
0.0157499525511845
0.0158004576435791
0.0153758461653999
0.0153291032430069
0.015811806892048
0.0150103030251921
0.0157516777364016
0.0153092747631133
0.0150027628776751
0.0150029864187688
0.0150132933792656
0.0150007574773397
0.014998533048111
0.0149980730105
0.0153027721171161
0.0157509027866055
0.0150006771542201
0.0150757612851315
0.0162854801756229
0.0162868554898205
0.015071790549226
0.0151160589040671
0.0169421920409685
0.0169512056271599
0.0151187318469851
0.0152570871365941
0.017387986967832
0.0177210762907098
0.0171052305977551
0.0178912144235241
0.0188732830364893
0.0183098441758577
0.0153536670529299
0.015303019653189
0.0179965982952144
0.0171592100153677
0.0152291547761373
0.0153346202757982
0.0172187163983574
0.0164794368430149
0.0151769324533312
0.0150524437958996
0.0150163649971159
0.0153484057695769
0.015868189396269
0.0158296423751758
0.0153008631775648
0.0150080530416001
0.0150285257203719
0.015016166767082
0.015005147775285
0.0150106215341324
0.0150288339434866
0.0150320622587231
0.0150755660869631
0.0150740623649296
0.0151496130082178
0.0164186906489217
0.0164364997107675
0.0150885539455146
0.0150133190091705
0.0150029100321402
0.0152981225697672
0.0158259488021342
0.0159353881232332
0.0153536403167027
0.0150018580999184
0.0150105538423426
0.0150023459041628
0.0150017030201465
0.0150002022412285
0.0150016852393304
0.0150056205243154
0.0150010577064639
0.0149989932291343
0.0149990706510731
0.0149995983498626
0.0149992875494536
0.0149990340813867
0.0150012859505043
0.0150010929060001
0.015750548178434
0.0153026016379288
0.0149986580708016
0.0150033831171326
0.0153088191366221
0.0157507506379565
0.0150109393768562
0.0150707145373039
0.016284884237089
0.0162846432497349
0.0150740095831819
0.0151145654657501
0.016949102833277
0.0169507425592246
0.0151214107655566
0.0151609838850317
0.0177427049818329
0.0177086237158269
0.0151609734960721
0.0151559790870191
0.0176894527778078
0.0185155122588348
0.0154778501772082
0.0157733476636393
0.0193271315766271
0.0201357527425829
0.0187404922220438
0.019754440105624
0.021281929977896
0.0206036834822075
0.0166404382512794
0.0160703174110816
0.0201731853057215
0.0189447468270059
0.0155807494104027
0.0154595001655114
0.0192316952111081
0.0181480280865898
0.0153564340743744
0.0153190987209628
0.0180739314949216
0.0171542754924491
0.0152749546770318
0.0151438139259756
0.017185733511905
0.0174783200739263
0.015334882820488
0.0151510236847973
0.0166207397439199
0.0166981199452001
0.0151203405308145
0.0150080616410101
0.0150015654145522
0.0153820114979038
0.0159814350131677
0.0159210453199586
0.0153476059726517
0.0149991343444733
0.0150044518080069
0.0149999928666797
0.0149998038915848
0.0149990197259225
0.0149973547746176
0.014998138553128
0.0149993000886895
0.0150004430763913
0.0150013935159667
0.015006024049846
0.0150015119928468
0.0150035956080713
0.015014026842833
0.0150497373379727
0.0150141285448172
0.0150119433793555
0.0153238174884815
0.0157333458546413
0.0150455777999373
0.0150882394244465
0.0162948722662013
0.0169447246329375
0.0151167622408169
0.0151124770181873
0.0169381690442706
0.0177001630405846
0.0151561205910001
0.0151529595557422
0.017739165625931
0.0186637974965244
0.0153746101346183
0.0153853126775732
0.0186716599158733
0.0185900417293989
0.0154163519498135
0.0160095800076541
0.0197382764869941
0.0195753799035119
0.016084810481411
0.0162791737212346
0.0199770384575121
0.0209295915744062
0.0172501745202147
0.0174642424152283
0.0213908214545553
0.0215300006342187
0.0172733259083453
0.016575598611797
0.0205513263182717
0.0214114997533785
0.0167621173604766
0.0173598493747965
0.0228682463318793
0.0248019618465893
0.0179858273499366
0.0186079891638321
0.0246888814430837
0.0251687277042738
0.0290170727457388
0.0266328256803165
0.0192639689393996
0.0190594373543102
0.0264464823855384
0.0258197781704024
0.0188988630185563
0.0186103716688045
0.0233789434756215
0.0263198232360157
0.0251223419116195
0.0234563663234998
0.0178163476141543
0.0218782934540118
0.0241517535738506
0.022817725541122
0.0208574240714023
0.0173613878475532
0.0224802489601512
0.0223282652865981
0.0170299037899118
0.0162415942649824
0.022060397115364
0.0205338465289135
0.0157262139280816
0.0154751544979445
0.0204120731257579
0.0191503070325412
0.0153652919516755
0.015216241800407
0.0191479033635714
0.0180896383884396
0.0151791119659091
0.015400134629802
0.0185889686245052
0.0186843051880257
0.015414907186176
0.0153323202103892
0.0175659463545927
0.0173564390610286
0.0151140828293038
0.0150459164413094
0.0165890936767608
0.0165844090529457
0.0150512515909162
0.0150065869081845
0.0159179874030136
0.0153470335774666
0.0150000940475206
0.0150001579875593
0.0150015707714159
0.0150065626517308
0.0150010108441781
0.0150022384492398
0.0150047766441409
0.0159757600200932
0.0153804536024081
0.0153517583248246
0.0150004188491185
0.0150096506397381
0.0159306627957483
0.0166115378653555
0.0151527091039867
0.0150890378771116
0.0164278973396775
0.0164136157623196
0.0151510017550497
0.0150280517871452
0.015008608079241
0.0152998121307791
0.0158276028453984
0.0158213280681278
0.01529689234133
0.0150033700316679
0.0150136351801105
0.0158641267863967
0.0150517621599662
0.0150157872237271
0.015347139818338
0.0153527039836523
0.0150309246560491
0.0150675200080226
0.0157898277927184
0.0164049934755232
0.0151417078959113
0.0152427102709092
0.016432369445566
0.0166318913582027
0.0164490100577695
0.0157543626089076
0.0153310145072934
0.0150325459256222
0.0150695413024717
0.0157621257057579
0.0153310696276881
0.0153751731154987
0.0157680018453601
0.0172587872868246
0.0176110771629853
0.0171293888165841
0.0153430297975944
0.0152483002153159
0.017128719646622
0.0179579924954976
0.0153269006130679
0.0154393847453599
0.0179093245447737
0.0187463979660712
0.0181667090187216
0.0192067969535198
0.0199514319467949
0.0187478902770505
0.0159052035172782
0.0154942714035216
0.0184965228750229
0.018573159777191
0.0154064659887878
0.0159948461005424
0.0196867519086237
0.019842616951177
0.0159389179100797
0.0159496548026327
0.0198637956395025
0.0217735501497703
0.0168019094034481
0.017422505003181
0.0232503901056344
0.0255985037308756
0.0178683539556056
0.0177952392529571
0.0249949022439867
0.0277449705723857
0.0192018027141749
0.0193826108747074
0.027200297099147
0.026526739817818
0.0195651518903845
0.019342411767639
0.0284008833140674
0.0325050458357794
0.0274061703583734
0.029749001943306
0.0357773517062096
0.0303550074017251
0.0198056499368539
0.0193353103417199
0.0298747184079915
0.027941813756839
0.0192184050137109
0.0190447417220191
0.0267173092369836
0.0253636673118735
0.0185726941145202
0.0180212288571212
0.0236290793433359
0.0232633583881441
0.0173841343838556
0.0172257404284828
0.0244848855173382
0.0239529972554498
0.0168208123029679
0.0158353486125608
0.0219187466082987
0.0218219154809818
0.0155143756287123
0.0152822116638839
0.0203790085476188
0.021550076300802
0.0155261133351338
0.015462747922443
0.0199338608818529
0.0200328393107337
0.0154888651990326
0.0152221161572224
0.0193160324938994
0.0182610210264599
0.0151697905062985
0.0151752865865982
0.0182537673790669
0.0173510507070874
0.0151195110069856
0.0153352785014298
0.0175537190899543
0.0166888423094051
0.0151252775658696
0.0150475514142725
0.0150072244636165
0.0150113887980642
0.0150051951997186
0.0150040787178657
0.0150039362093514
0.0150020946929077
0.0150443731919488
0.0150230540119488
0.0150544955759094
0.015335814830586
0.0174643463553244
0.017172895119777
0.0151411004702023
0.0152759593226409
0.0171447702795608
0.0172068348497249
0.0153372613782626
0.0153622027902119
0.0181292466624755
0.0192001079511551
0.0154765919468963
0.0156204639553552
0.0189001052303829
0.0201119965649944
0.0161503728924077
0.0167160158455106
0.0197598056080033
0.0210513174581825
0.0204362289968108
0.0222383639444761
0.0225475961238578
0.0208759122805762
0.0174712284920319
0.0173139166006744
0.0208576475017258
0.0199129106078113
0.0162678356605722
0.0165699599169225
0.0204830440462326
0.0213622562614551
0.0173856409500083
0.0175366377674145
0.0212831252353225
0.0218425406122871
0.0178843664150177
0.0233642228074222
0.0238260775602442
0.0259616983843487
0.0233869273618347
0.0188736205673225
0.0249825654313226
0.0259601511421674
0.019376001280663
0.0197053211012282
0.0266003789463407
0.026250930742342
0.0277918873743138
0.0250352410443793
0.0199079276832157
0.0191454963218777
0.0244450684988241
0.0246513895966816
0.0184990967523569
0.0180749678900902
0.0248511382558237
0.0255005023253972
0.017994427032496
0.0178874922722363
0.0256343736349013
0.0257126353367868
0.0178798684582416
0.0194854931612247
0.0287973400135069
0.0285717439297367
0.0194432045916941
0.0207612392982849
0.0306558475033064
0.0297620126651166
0.0204690863989215
0.0203393034677562
0.0296187794819053
0.0288374728267736
0.0203687786646799
0.0199483074618217
0.0284544111046427
0.0294751142568839
0.0204636927612514
0.0211951146204422
0.033376472057907
0.0325848612400361
0.0397631934075873
0.0323806706665629
0.0201645205119346
0.0194864975951989
0.031890508091433
0.0312185641667557
0.0192937336631554
0.0189951420567936
0.0294604901222361
0.0273259335056537
0.0188777938905711
0.0179839507105638
0.0261949076872129
0.0248832528544088
0.0176793315053823
0.0168146538424199
0.0160755784148262
0.0154545906913023
0.0155063861147855
0.0157025578975397
0.0164471994029878
0.0240438075637074
0.0256184813962364
0.0165368628443905
0.0164867259269843
0.025293898039668
0.0248925320026453
0.0166458451192755
0.0166027051189901
0.0246070238291771
0.0252966136676329
0.0175138635593683
0.0174567047161731
0.0255174964765565
0.0259255812165594
0.0174758033495761
0.0180519059287899
0.0264804398262932
0.0260116768251555
0.018122065067629
0.0173173376397888
0.0246177119582594
0.0167211033614104
0.0185780608212021
0.0276979981043096
0.0295080672133965
0.0195213385960468
0.0190338899651448
0.0285416821567068
0.0273943376318667
0.0177885377804972
0.0167503330442964
0.028287393034318
0.030779285907605
0.0163270054685206
0.016219828577749
0.0281166691678573
0.0256235219517143
0.0160800515158066
0.0156151406363298
0.0234648027712493
0.0235577992084115
0.0156432926182777
0.0155555775064857
0.0216481029812289
0.0205351940891208
0.0152732408355271
0.0152784869576764
0.0205195952184825
0.019305633383807
0.0152277584765234
0.015487816114039
0.0199975309718189
0.0186644801950059
0.015416860467444
0.0153956793276511
0.0185668863821907
0.0180698099180983
0.0151682952730478
0.0153179655917343
0.0180564578214461
0.0191197207987935
0.0153593098259894
0.015456997458235
0.0203616644439728
0.0204823918395011
0.0158014638445414
0.0163480800886484
0.0220343049558847
0.0222552309289
0.0171528320437244
0.0181997010527348
0.0236994608186355
0.0251536532782024
0.0190977566424169
0.0196244247977
0.0275206385874402
0.0282754239942266
0.0199961416904485
0.0198438852150548
0.0271624030572194
0.0282944367945594
0.0208003332577704
0.020830673801766
0.0289294989221413
0.0291535830692097
0.0202658891931947
0.0207800513125034
0.0308083411844161
0.0320604063465962
0.0371266642027931
0.0323588854477011
0.0225350082894397
0.0228270095798629
0.0320681420316233
0.0307446691836467
0.0223627258879798
0.0213941867800684
0.0291862466769157
0.0332557478399005
0.0296506259087935
0.0282650258578382
0.0308631694675621
0.0274103636757312
0.0213041739047023
0.0208224173250857
0.0272707327395402
0.0273265617134544
0.0200894168918994
0.0195529229415121
0.0277482983809012
0.0285466463970632
0.0195772611214558
0.0194993164225393
0.028740860885088
0.0309651873507166
0.020933863630564
0.0209628631195074
0.0310380381633319
0.0309646194437491
0.0208579968921681
0.0208557203526887
0.0307304113454043
0.0339660020055032
0.02283448966851
0.0226948301541794
0.0338457157151026
0.0328952752415017
0.0223018767832085
0.0220338692738296
0.0325180260912425
0.031346583877216
0.0214773082659293
0.0205906410062655
0.0304852677553688
0.0325566491361048
0.0211746232712511
0.0214193878344995
0.0352180069434155
0.0380341584979658
0.0216600183007849
0.0215240160031185
0.0383279092274641
0.0356882542782931
0.0438689199809161
0.0344404994607321
0.0204831504589593
0.019644285518315
0.0340500844656439
0.0338503884073325
0.0194458730573064
0.0190917667961136
0.0317738769706532
0.03013243116971
0.0184917849774773
0.0182069087359666
0.0281045826737928
0.0171913090773973
0.0164979878656104
0.0162089212900999
0.0162997711959522
0.0157435366026597
0.0156687481188294
0.0156028113901085
0.0155606151777358
0.0153306482430139
0.0152787742466532
0.0155796645779608
0.0250895977698473
0.02346394600275
0.0154393871230498
0.015337554969428
0.0219273908631859
0.0219030629599343
0.0153351123078583
0.0156238947262286
0.0234459418220894
0.0215816718392118
0.0155561120873925
0.0154936073629357
0.0214793792334313
0.0203315669087281
0.0152521044151765
0.0155951746339112
0.021735618583036
0.0218274492560788
0.0159746320147741
0.0170584348364332
0.0240196611962849
0.0245796047307097
0.0176643873286156
0.0174956718674483
0.0232196205090195
0.0250054049023252
0.0179217358873397
0.0187672308066729
0.0257188688444271
0.0283887899652016
0.0189357137219489
0.0200882398202744
0.0311463909287899
0.032096853545203
0.020681514577859
0.0228926895836971
0.0349042945984727
0.039995677743108
0.0334744576353459
0.0353289442712004
0.0444299376197753
0.0387625630027566
0.0232287566213296
0.0240055492353618
0.0387737933689269
0.0359854549635915
0.0247585373780232
0.0245318919321894
0.035736391358015
0.0371856344405916
0.0247772789750851
0.025530650960888
0.0378645333234633
0.0380497212876264
0.0252073442612038
0.02545097897531
0.0384535271666868
0.0400766131911438
0.025784675205739
0.025792708612343
0.0403107019072042
0.0409344804540636
0.0258409398734239
0.0258257335701355
0.0408648983463068
0.0406240132503219
0.0258232428862735
0.0256614271735704
0.0402716122990327
0.0395155662241743
0.0254685740103898
0.0251901376439044
0.0391901145926949
0.0385847538335829
0.0249064562417577
0.023774492071571
0.0375414097065819
0.034720369466092
0.0223600057851524
0.0227075364583331
0.0390261104644906
0.0439799161484633
0.0230634723567028
0.023491825486204
0.0506279551508777
0.0411900945569385
0.0218393506213431
0.0221177219731246
0.0451517228911587
0.0443640727239522
0.0218387633855365
0.0207966815954288
0.0367272732557057
0.048782752020973
0.0393405480233552
0.0431151753329059
0.0537904577619776
0.0395163664875598
0.0211011260678373
0.0200979404650311
0.0390738733703557
0.0364309259625727
0.0197921430108205
0.0196485232130474
0.0367488388886046
0.0343386017616578
0.0192155426811961
0.018624528785848
0.0324402582525867
0.0317552861376233
0.0192400428009359
0.0190258811997633
0.0294916882445784
0.0171753527265362
0.0174011888448171
0.0168661518912002
0.0157772533557997
0.0158367040271346
0.0156464142776776
0.0160435151126637
0.0309697387151987
0.0282545665498658
0.0158910999086763
0.0157692054498954
0.0257857819678935
0.0153871303679054
0.0151976673401732
0.015191969981705
0.0154381495753511
0.0233956779963968
0.0255820532923749
0.0157145126874803
0.0156973451658731
0.0255071531930296
0.0234123411134017
0.0159671370861364
0.0164560055367633
0.0259273412787587
0.0251553420509545
0.0172712257298738
0.0178681587372398
0.0256115022938535
0.0261988942719253
0.0185439233643638
0.0181114403083703
0.0262498100085532
0.0269924681589654
0.0182038162744315
0.0184364623644139
0.0291535689570266
0.0310289157427661
0.0191844845594679
0.0204274688917881
0.0348791927767811
0.0332487102820292
0.0208237956438871
0.0209601188591064
0.0354524295101262
0.0375530832051265
0.0484514147645436
0.0426672399878038
0.0235214762159192
0.0243902797522226
0.0436388503911061
0.041222520990226
0.0259725679118541
0.0266327213377049
0.0417064482412041
0.0449851356684323
0.0267286135163952
0.0267400150976729
0.04628783784259
0.0466991523073172
0.0268708740060237
0.0273783638363997
0.0487462332464655
0.0493059743069229
0.0271606614125418
0.027475748189698
0.0506415101455876
0.051193212130327
0.0276183718353755
0.0280110070486492
0.0527529092290158
0.0545391004174437
0.0281927107697676
0.0282396156190161
0.0552535789994299
0.0553599085331711
0.0280883675042768
0.0283717711818837
0.0559033135858139
0.057040711149038
0.0283715432668225
0.0282844842636927
0.0570875375551584
0.057021821550565
0.0283428891142355
0.0283494260171346
0.0567065638698881
0.0562817438028345
0.0284724080138141
0.0281882745669529
0.0554860307026843
0.0553148727996687
0.0282086294517677
0.0280645907345558
0.0542390609361527
0.0532820456611467
0.0280100728344564
0.0276488997255052
0.0518302500932122
0.0512972009427049
0.0274725227271916
0.0271010949164895
0.0499671462325161
0.0491087843691676
0.0269051788877594
0.0262891167313343
0.0473283178438537
0.0471908949630959
0.0260927551660689
0.0259772542670345
0.0417883779107978
0.0432808985697093
0.026593865890208
0.0267561104951917
0.0436439059103855
0.0442591191322231
0.0271023378215458
0.0271942464504879
0.0442700342765249
0.0450864749819328
0.0275600783301664
0.0275829801034008
0.045580806098276
0.0462492666926659
0.027777096149501
0.0277213988427515
0.0462781163590092
0.0467558001282967
0.0279594475698939
0.0278569352802445
0.0469111505244328
0.0471647327601493
0.0278740328361796
0.027841459573863
0.0471552303163976
0.0470941186414151
0.0278790043093901
0.027843569451639
0.0463612927781688
0.0460514857821483
0.0276530930148218
0.0278128832794848
0.0460377963013195
0.0455254652314999
0.0277082567409294
0.0274940140347411
0.0440537864690326
0.0431861262492542
0.0271226719019152
0.0270597123190493
0.0430090678988925
0.0423878192868373
0.0267625819350928
0.0270878226418006
0.0422943713588007
0.0409180639115148
0.0265847072413765
0.0268265699732576
0.0228668998394684
0.0204830352837591
0.0179137624949299
0.0173706268690281
0.0166261052359045
0.0164762019841054
0.0159052290679545
0.0157882598776536
0.015754771023896
0.0154965442304639
0.0154185368813192
0.0158622580368026
0.0279424113867087
0.0281003777749318
0.0159501064645724
0.0161469030132667
0.03095640005579
0.0286630906059833
0.0167894798525736
0.0173486871096717
0.0284469130982944
0.0268332370811572
0.0171999269190791
0.018235787770188
0.0278493451354314
0.0285533411020787
0.0189508074061726
0.0184207806562713
0.0283360595080099
0.0305933029894924
0.0186094790094298
0.0186833761863655
0.0313472417402321
0.0338765745225022
0.0195250137092226
0.0210710967604735
0.0392679590270727
0.0374827119744875
0.0214944251778114
0.0246657732956258
0.0403054418903844
0.0534845765461731
0.04689663811144
0.049649353332778
0.024836281295098
0.0264241896452325
0.048164167926492
0.0523019324390377
0.0271216954148281
0.0281839134900014
0.0556904918914835
0.0583925943846542
0.0282774116846795
0.0282627852988475
0.0620107987174541
0.0630298319096692
0.0275910359428813
0.0282396555412854
0.0656817988054884
0.066782715879031
0.0283246257988169
0.0288070570930953
0.0692599685221015
0.0707484575982085
0.0292610916058983
0.0297795828473103
0.0729067763692713
0.0744282914026399
0.0300734011280197
0.03027208249491
0.074789098404137
0.0750425980565036
0.0303473669072686
0.0308152735309176
0.0760665495657435
0.0779187065473451
0.0307804915766423
0.0306965119211291
0.0777731139720238
0.0775257302723417
0.0307926948773687
0.0306977004094568
0.0772703054952028
0.0765502502012919
0.0307636593207818
0.0303548378709305
0.0755655698050278
0.0754304702918318
0.0300927306010357
0.0297824704582131
0.0746076428909378
0.0733270139783114
0.0295175775884376
0.0290755003487382
0.0711245226905555
0.0690046535051115
0.0286270074915593
0.0280808281169929
0.0664971528104618
0.0658142425840344
0.0277173728869127
0.0270052290584721
0.0645345560902787
0.0568794620547932
0.0259448711670168
0.025691635573474
0.0509714212940165
0.0454896970445925
0.0242393568827683
0.0247453523343514
0.0548929060234356
0.0675618745091013
0.0252607853183827
0.0258275919484773
0.0867997371560395
0.0591946432082915
0.0239136735890941
0.0243345110616839
0.0713270203012409
0.0490399990070945
0.0222653849024359
0.0225019131682553
0.0548303276811016
0.0521021882589842
0.0220957514545939
0.0223381721219295
0.0617971910699635
0.0483959964092424
0.0598759163622626
0.04298362606773
0.0233068307788703
0.0218671428363768
0.0419957082771277
0.0433378369896457
0.0215357917024275
0.0203271127219558
0.0412119897037282
0.0373052405599308
0.0193457365488457
0.0187375331557344
0.0350422690304802
0.0342977976331342
0.0193163802674747
0.0197841994559311
0.0350899640164858
0.0321351480399734
0.0197579361254175
0.0191691385925595
0.031083950127932
0.0289889019215149
0.0176046408901187
0.0176598620933128
0.0306992256144194
0.0314617734406601
0.0172930399042418
0.0174454479233176
0.034237463778977
0.0342407786349107
0.0162300630764528
0.0158440314004682
0.0289009892449897
0.0268217225235641
0.0157263026696975
0.0157269970136381
0.0266772941779572
0.024972964830686
0.015578354047496
0.0152760889136328
0.0153773533030997
0.0155503686245958
0.0160450850186621
0.0305892220283958
0.0338456564710538
0.0163105142271294
0.0175234046587832
0.0342722451448982
0.0317818384817873
0.0174972942872383
0.017437428388353
0.0315692393602741
0.0298414392695642
0.0173230168490597
0.0185187308030746
0.0329239056686794
0.0303370454507128
0.0183898395231767
0.0191054619287705
0.0312270270925975
0.034181839741482
0.0192161075978729
0.0187782639016123
0.0330334815302214
0.0337799180931168
0.0189027784654955
0.019850572077184
0.0371127236368252
0.0442192931804232
0.0214187691137703
0.0217950821193703
0.0424338886470293
0.0475217796977118
0.0675413000074441
0.0574474108097116
0.0254103373546209
0.0256045878825624
0.06610827216838
0.0699362803205699
0.0273253706312659
0.0280488682538471
0.0887355781288109
0.0968966586131554
0.0289170336012382
0.0324274472749815
0.13564457983225
0.136501978620592
0.0326204879661667
0.0339584145861694
0.142831169137669
0.156379201681586
0.0381140588110298
0.0444917174839338
0.156105539657192
0.17940430057843
0.0495214082521604
0.050578757389578
0.187614112343287
0.191790158123126
0.0503008245953103
0.0494482090496809
0.192281890216241
0.193058080390022
0.0495808987795259
0.0492073755750512
0.191455031591504
0.190538320519783
0.0496848231355736
0.0492789538565636
0.187888808505157
0.187353069321936
0.0497277389829404
0.0494003924269391
0.18466935540787
0.185199944659076
0.0498875340029315
0.0496152865599623
0.183799647987479
0.185797158162015
0.0502225912052273
0.0502926037220945
0.186038207363171
0.188771979200351
0.050870514705035
0.0506044914915921
0.192830683069499
0.194257796053571
0.0506352345878887
0.0503635102325223
0.192334196112093
0.191480206173378
0.0505329044570857
0.0508603796425769
0.191311765205762
0.190375406825622
0.0504470979155735
0.0506587596953979
0.192190299327394
0.19055908635216
0.0502442772729583
0.05080707152904
0.19170445309426
0.190006128837554
0.0502935965612569
0.0504361934413117
0.190707204586059
0.189663034564702
0.0498985628942393
0.0502139193681068
0.191914778077615
0.192221818349553
0.0497493002176646
0.0501349654950921
0.19556184050774
0.196946714692398
0.0496402887399509
0.0502870211262516
0.199873778593705
0.200199064709618
0.0504321251981695
0.0514942211112139
0.200049364814787
0.195389079355538
0.0517291620302502
0.0504537686184067
0.186085513012415
0.160832013653389
0.0452380527636795
0.0393260967381437
0.162076600393545
0.152346665695892
0.0354850669470617
0.032380011463207
0.149923648855402
0.101688426422989
0.0274128855303838
0.0267465733960538
0.0842962913585578
0.073265451592037
0.026423800203692
0.0260111279987745
0.0635929883257963
0.0774833723411123
0.027545013389283
0.0288589581540789
0.0940090751181822
0.117304494974926
0.0300644128817537
0.03312015964081
0.11734154169667
0.121567376435544
0.0371839177699095
0.0438480325705277
0.137957556900325
0.147651000137682
0.0495144415102786
0.0506714894328549
0.153213443200874
0.1575583244473
0.0509965740801408
0.0495385671523992
0.159795674482701
0.162122057829793
0.0494548077134893
0.0483507613761514
0.16074065632867
0.161559471991851
0.0489992270802128
0.048334065364144
0.159066755503047
0.160216780594433
0.0489412028336711
0.0484197186032622
0.158201687911784
0.159958789549809
0.0490659316937751
0.0487927591505937
0.159351212759996
0.16121608015594
0.0494127864834478
0.0487562030155159
0.160667161756647
0.16201437616368
0.0492378167769137
0.0489877648942533
0.160609726288873
0.161508138385901
0.049404837454633
0.0490783157785523
0.161763364178912
0.162070977676083
0.0489470727124937
0.0492126341254248
0.163525440104325
0.162699993093751
0.0491309660292492
0.0494032812934569
0.159094159590334
0.157063648613846
0.0488033970986065
0.0487916314821669
0.156594023832009
0.154689628532228
0.0481308748400469
0.0485409703794509
0.155952683164563
0.154599440486953
0.0479426500988157
0.048456255253413
0.156942074134725
0.15601631777177
0.0478763211141012
0.0485496971424604
0.157826693662568
0.156757760850643
0.0479358294261244
0.0486798847475719
0.156968570835463
0.154066737130763
0.0485064543393347
0.0497992263338732
0.151862053040966
0.147795767136644
0.0495851711414103
0.0485382992908642
0.142861791128548
0.133903864734849
0.0431260196457183
0.035854147510359
0.119086773532908
0.11104963634519
0.0414247362514762
0.0457642010639389
0.116548829791978
0.11975698241406
0.0466020980382265
0.047417029927125
0.122829406127133
0.124134704652208
0.0463452896199745
0.0471687508725268
0.126972426586397
0.126941074660958
0.0461974803081982
0.046937670907477
0.129353728350767
0.12814110664415
0.0459044621211858
0.0466640059670652
0.130044901684487
0.127989696939914
0.0459153508341796
0.0466504797961711
0.129741049787598
0.128687886399517
0.0460830458827006
0.0467853245575071
0.130289267730329
0.13095701402887
0.0467362721471237
0.047346767776937
0.132255568801279
0.135387118759341
0.0470652300810079
0.0471935128549988
0.135878311865752
0.134804744143071
0.0469368478365616
0.0470177967756202
0.134730326651745
0.134431510033995
0.0473336835696991
0.0469425792593177
0.133771103059335
0.134800654436178
0.0472280512471548
0.0466859178322564
0.133713069519513
0.133824239734559
0.0474510331112958
0.046709482830473
0.132120644839442
0.132594534820159
0.0471398559648204
0.0463629781129158
0.13052350097241
0.13233618231234
0.0471512044520135
0.0463395245313733
0.130215710665283
0.132146123195741
0.0474046899974681
0.0466097922817939
0.129799012400455
0.131099520806664
0.0479550295582442
0.0472636085381693
0.128490305034187
0.127049763592093
0.0484725895108953
0.0475581388196635
0.123780303189041
0.120169414676274
0.0467088149276451
0.042112982913595
0.114342580603754
0.103568632628172
0.0379688786775566
0.0328109203696298
0.0950333976081556
0.0940257605526239
0.0306269114865573
0.0287936035417615
0.0780388834992113
0.0791235271521335
0.0294092757946752
0.0302374444988357
0.082878417637501
0.086224195121208
0.0305674295073567
0.0393008799726324
0.108496016462802
0.11210124738865
0.0389769686471441
0.0386435342969692
0.112906282413073
0.113106220495128
0.0385671023078854
0.0386565954965792
0.113207430900759
0.114424030447555
0.0389398883063505
0.0387835145839676
0.115537336163054
0.115562951040334
0.0388732786407796
0.0387102917752161
0.116114570483516
0.116706498555627
0.0388344453525056
0.0389523839213747
0.113438434842568
0.111667102547382
0.0385065513309181
0.0383829838214048
0.111185670135296
0.111335656897817
0.0383102662720236
0.0384477369870141
0.110470144424973
0.108377755808818
0.0385094579096597
0.0387111543092501
0.105100661921508
0.100655889555716
0.0372295062333827
0.0318412535591285
0.0938961982936815
0.0896914178835022
0.0292862193942675
0.0316624668080819
0.111311234647797
0.108093176882486
0.0307118126042352
0.0302768488705801
0.106571895600457
0.0805084555069251
0.0284482045438281
0.0275815854322818
0.0665772219004061
0.069675872389346
0.0282908785863633
0.0292335041430445
0.085277388837658
0.0879443099147608
0.0291721434781002
0.0285231431058819
0.0728417240221731
0.0742942609082443
0.0281517463884582
0.0290054836174254
0.0782921278791879
0.0804277342990364
0.0298099288704065
0.0302636889226919
0.0837229524349851
0.08552882391632
0.0305063620475215
0.0312634639117108
0.0865314113204339
0.0867963217932486
0.0317999098334898
0.0321762752095758
0.0864518143021388
0.0864543956618276
0.0324326951799612
0.03298035494272
0.0876275622377125
0.0896632496047417
0.0329740993930034
0.0328934723338105
0.0894182183838552
0.0890915514777753
0.032995827898612
0.0328546864997613
0.0888526825356483
0.0883344649096735
0.0328227295550696
0.0323223744564717
0.0876436112727682
0.0881372678772969
0.0318317937353416
0.0312574964460253
0.0884607941397195
0.0885677432075848
0.0306941972692938
0.0300845642449247
0.0268198081470282
0.0263722672769964
0.0258503341411403
0.0252371135249607
0.0233791303074477
0.0232121959636371
0.0228713883659208
0.0225568717301986
0.0201143489960778
0.020064417680742