/*--------------------------------*- C++ -*----------------------------------*\
| =========                 |                                                 |
| \\      /  F ield         | OpenFOAM: The Open Source CFD Toolbox           |
|  \\    /   O peration     | Version:  2312                                  |
|   \\  /    A nd           | Website:  www.openfoam.com                      |
|    \\/     M anipulation  |                                                 |
\*---------------------------------------------------------------------------*/
FoamFile
{
    version     2.0;
    format      ascii;
    arch        "LSB;label=32;scalar=64";
    class       volScalarField;
    location    "1700";
    object      nut;
}
// * * * * * * * * * * * * * * * * * * * * * * * * * * * * * * * * * * * * * //

dimensions      [0 2 -1 0 0 0 0];

internalField   nonuniform List<scalar> 
162506
(
0.00149781301580268
0.0015522054802603
0.000102987261992258
7.88006946741019e-05
3.92610844391204e-05
9.52643119395364e-05
0.00046020687250966
0.000530883071448002
9.31985323235388e-05
6.34523975195729e-05
6.95895030487654e-05
0.00088592554537327
0.000936968949966778
0.00130189727257467
0.00293190906910826
0.00332146822687487
8.95290230554538e-05
9.28913643994937e-05
0.0013293989978317
0.000677625527203408
0.000910845788717311
7.98739039586317e-05
8.51389542568812e-05
3.87255797729483e-05
4.36014335225309e-05
6.12589964240599e-05
5.67983226754265e-05
0.00570457960629107
0.000106154615680469
9.82012887282513e-05
0.00813568910704738
0.00772429577214197
0.00496186065900845
0.0104495367925334
0.0150001157677743
0.0149413110010258
0.000100603879468454
0.000109813032440189
0.010656911478584
0.00846364403742752
0.000113129527272976
0.000110713093359777
0.00510474529775024
0.00458148453974818
0.000110746739910115
0.000110630516670825
0.00324838343204887
0.000815425307922521
8.70928739700643e-05
4.53256225501929e-05
8.51772569032301e-05
9.13393574357448e-05
5.00791970993934e-05
9.64926846320135e-05
0.0011609355227475
0.00128193369418723
0.000101217938220309
9.79042205473997e-05
0.000863639452469776
0.0021422728796254
8.25010212847862e-05
8.17069412493245e-05
0.000955029798078342
0.000819815078422468
0.00228424041400519
8.06790709768456e-05
9.25360299551015e-05
0.000109623751826677
9.7820807219519e-05
0.00434988852949989
0.00283494996112955
0.00418200242351166
0.00593922596475949
0.0035295093988276
0.00247405762469471
0.00192474764411879
0.00167933251750687
0.00333948438006066
0.00298428886183167
0.000102682848636986
0.000113684774675641
0.00530325084014908
0.00507023131918256
0.00827162531950947
0.000102931285140385
0.000112842908993158
9.99222883767764e-05
9.02205196625927e-05
0.0101041904312672
0.00566187901883807
0.013103710240583
0.00962088987687845
0.014528003624045
0.0125323711586005
0.00871242602893647
0.0116663400601216
0.0150003106346293
0.0150014786387203
0.0150016946466625
0.0150004408186673
0.0150003382583582
0.0103852686127192
0.0109427159835639
0.000109774181539637
0.000100687839606649
0.0149430611101899
0.00731815313240921
9.82866072626804e-05
0.000107008823780969
0.00569915421215687
0.00570750151313785
0.000110705667527511
0.000113664400720562
0.00931352288383971
0.00803723063953707
0.000111183867685277
0.000110076667010878
0.0078786239427788
0.00485501798983186
0.000110956394355006
0.000110718800268209
0.00380489407549159
0.00334302138206806
0.000115615179725541
0.000112463389232396
0.00230355851518541
0.00112571382593953
9.69979200221759e-05
5.41725268536213e-05
9.42751431922494e-05
8.76787403928124e-05
4.83545380997192e-05
7.64200578895451e-05
0.000744139027725343
0.000702654292456721
0.000112256133912796
9.67037572956621e-05
0.00131393919676525
0.00219450768055469
9.34317119966926e-05
8.75990741589692e-05
0.00271933994736324
0.00373591461452916
0.000107805992170878
0.000106072930310335
0.00351587415255497
0.00824551913437735
0.000106405908956733
9.81115608720086e-05
0.00480106833521942
0.00691913064896501
0.000104860794880641
0.000102388926094646
0.00802706898827631
0.00709620715227756
0.0110141198800726
8.65932166992783e-05
9.60092674872749e-05
0.000105912795145514
9.42711114108983e-05
0.0149278965666745
0.00818193286983973
0.0150011153957777
0.0150007007318752
0.015000345074038
0.0150008112235357
0.0150010936293545
0.0150004693912036
0.0134232336614766
0.0141986851609568
0.00869017379956771
0.010454139698345
0.00703773076298206
0.00489611853208633
0.00126313192577159
0.00278926863419726
0.00312909142453502
9.01386430211672e-05
9.62961484047628e-05
0.00143553085984442
0.00168884754789016
0.00010301723548545
0.000110804887330119
0.00318635024761641
0.00532157997171431
0.000110970324957775
0.000111898232115175
0.00415770394802632
0.00515527637474828
0.000110579086812195
0.000108171236456662
0.00276146205252955
0.00274997945039255
0.00010526988029791
0.000108593338445774
0.00251825972453409
0.00135780307199578
8.98278795436952e-05
9.46401285473199e-05
0.00138295356947596
0.00072576891886809
8.71380386105882e-05
8.6403316361792e-05
0.000720420529777067
0.000611194983643576
8.03582776595317e-05
7.61418575999376e-05
0.00069743870938711
0.000640393939525596
7.77317833364008e-05
7.31180248218788e-05
0.000815228186107145
0.000588010393098973
5.39891414351791e-05
5.21222471424826e-05
0.00050998329811656
0.000618335037375491
6.4650661508123e-05
5.75185616793785e-05
3.32081828328292e-05
6.77621038938283e-05
0.000603951042221927
0.000540522465795276
7.23241414426049e-05
7.24084134245929e-05
0.000492149670736768
0.000480900386821208
6.02966857392912e-05
3.58903693975569e-05
6.82143896052718e-05
7.44062252995742e-05
0.00038428933062568
7.05389564452091e-05
3.37055085615757e-05
3.50653518848842e-05
7.43897735802251e-05
0.000503887559020008
8.75684565475743e-05
8.46249257723187e-05
0.000561165387210315
0.000968577163750615
8.65188413125679e-05
8.63006603848768e-05
0.00153019038501207
0.00208003910298804
0.000110604888561019
0.000109300072975684
0.00293753055672833
0.00432298718492942
0.000111643825051119
0.000107226140813997
0.0070233092216081
0.00436783270073919
9.51549040988997e-05
9.55646115515833e-05
0.00442218389798255
0.00496044193413858
9.7770961836803e-05
0.000115481334428787
0.00894253122945751
0.0113981423361263
0.00011455509775482
0.000113471365976223
0.0112413395589433
0.00701960720989849
0.000106435192526088
9.44094085370026e-05
0.0149281213153197
0.0147848146853254
0.0132762902740464
0.00587772492918078
0.0116678518122055
0.00941398099726459
0.0122221117573538
9.55658560350282e-05
8.70039117120365e-05
9.01437278957529e-05
0.0146908961212645
0.00536391309546436
9.95848900004222e-05
0.000103669408832958
0.00671399787065427
0.00564618659458729
0.000113321667131533
0.000102798966728202
0.00279482023821133
0.00295213477941577
0.00412949019298747
9.71565151083144e-05
0.000110734514809281
0.000113005486647946
0.000102844425191812
0.00766035166732871
0.00509383539525973
9.10197508467614e-05
0.000831310044944591
0.00235094422579896
8.14042147044627e-05
7.01138971661342e-05
0.000880435813566763
0.0010190836042943
6.37796874837195e-05
9.47446671539662e-05
0.000531949246599116
0.000455058525020355
7.7997534789726e-05
4.00561363191304e-05
9.87572244747732e-05
5.99530978826505e-05
6.40394646262508e-05
0.000927462785675699
0.000680690218120806
8.46166239498982e-05
8.28992351733314e-05
4.37521921467013e-05
3.95216887354928e-05
8.37540041609228e-05
4.57510732505755e-05
8.636784119677e-05
0.000777711164759338
0.000875648036468383
9.74999105467121e-05
0.000103776396989109
0.00128207316704592
0.00117349014700731
9.2537797712469e-05
5.03683050876325e-05
9.53883535773135e-05
9.68388350332016e-05
5.38089760236535e-05
9.33020702855699e-05
0.0011515353939135
0.00236273651191993
0.000113800378487893
0.000106891416103517
0.00267035579917957
0.00135397209470776
9.44156707478902e-05
9.52149768029985e-05
0.00128774496983057
0.00135001336647267
9.68166058544983e-05
6.47536349416045e-05
0.0007129639508309
0.000422598096655449
5.19341026791018e-05
4.29892439069876e-05
0.000288903424635349
0.0003738355292742
4.75749165560483e-05
4.21591677889359e-05
0.000287832419553506
0.000385483609840666
4.753857037658e-05
5.36961246077635e-05
0.000513690640224297
0.00062272434837278
6.21270448559153e-05
3.35150866848679e-05
5.22815104963074e-05
5.30040924422509e-05
3.82930504786646e-05
6.54344208783423e-05
0.000391777363717687
0.000488264715212829
6.65918600005083e-05
6.29028598946323e-05
0.000864137181442355
0.00041905814292444
5.64656037600515e-05
5.08511888326814e-05
0.000383936384314015
0.000313625579842131
5.87222361518415e-05
7.29390033625127e-05
0.000428190854431906
0.000826138655107045
8.04372578634824e-05
0.000110107331635408
0.000836419988728671
0.00131593378149064
8.93473332872478e-05
9.54965076610996e-05
0.00156086773803009
0.00262177013116474
0.00011372744527787
9.8276057190071e-05
0.0028965107423368
0.00413469856864152
9.60058293284686e-05
9.65785910961902e-05
0.00413528609195057
0.0048961374688147
0.000115128968855037
0.000114693194937118
0.00793505839703974
0.00792059341026202
0.000115010574063855
0.000114997483661539
0.00894417140004729
0.00493981050826646
9.64762663001092e-05
0.000100261355297622
0.00754455047977746
0.00319907322654822
0.00774626801473898
0.00777249927164535
0.0147373999932572
0.0119495899912436
0.0105105886934797
0.00879821809310772
0.0115705819103044
0.0134231014604115
0.0110915331055832
0.00476620934739225
9.85273530899603e-05
0.000105249889069214
0.00819971118103838
0.00341737463843808
0.000105877871024136
8.30662834730484e-05
0.00205769737178363
0.00290602373609009
8.69785690165793e-05
9.27779720445549e-05
0.00256240966655802
0.0013688869276151
9.76339466630476e-05
0.000109872261278287
0.000730133421214062
0.000824789946744341
8.52832182526512e-05
4.6774800679842e-05
7.71486834648831e-05
8.44145822788335e-05
3.39702192378333e-05
7.08173691621836e-05
0.000540806219751274
0.000635663748801601
8.54515531887078e-05
8.61124440584457e-05
0.000724811484551392
0.00066856285973041
7.98671113232189e-05
7.57790795390248e-05
0.000586068974497731
0.000545899496923202
7.63943258989943e-05
6.32764189503521e-05
0.000374518921658836
6.72063906794822e-05
3.27129245066834e-05
3.27004400249943e-05
5.57604716451604e-05
0.000389109158980956
6.15272121623359e-05
6.3815727292493e-05
0.000322585861002668
0.000411066024148073
5.4593001244569e-05
5.25679735680417e-05
2.81032745175115e-05
5.04958424821898e-05
0.00042435792357623
0.000488912559439294
5.72584874345988e-05
5.31283304838505e-05
0.000408974545197652
0.000283296811314477
4.34163503312086e-05
4.00493684632041e-05
0.000259870188859988
0.000245891405316079
3.81400013687963e-05
3.92129816939493e-05
0.000250081606344282
0.000184569611213417
3.64099714305563e-05
3.55938747454193e-05
0.000214121430780669
0.000177646770506543
2.9677704743082e-05
3.73450833530974e-05
0.000190491524357924
0.000259513694198673
3.74533906886547e-05
4.28410893908727e-05
0.000295329481305661
0.000342658788521477
3.77666116344295e-05
4.47093751351206e-05
0.00032534528644078
0.00027708308778401
4.32913417903621e-05
5.5293326917795e-05
4.2810472837586e-05
7.00588430274229e-05
0.00031202013985816
0.000380610414028245
7.36470239828342e-05
6.74518861853095e-05
0.000448550495362822
0.000507026694805124
6.2790089286485e-05
5.64066929647625e-05
0.000444973974806932
0.000432449056289729
7.55649947770459e-05
7.25225939846891e-05
0.000491386006791285
0.000494199673806898
0.000610671198356658
0.000492611176635913
0.00030416538086757
0.000435647018933863
0.000835191894097881
8.29692423941915e-05
6.56626978689461e-05
0.000577996626378968
0.000364024845670452
4.64281595518009e-05
5.11110775290142e-05
0.000461472246850996
0.000754418820603464
6.36763554115542e-05
6.79964153810895e-05
0.000474127918561821
0.000390480747195876
6.02708779716291e-05
5.44092456665326e-05
0.000333844939986863
0.000336775909882537
5.50291759316804e-05
5.3043725046701e-05
0.000499832607964708
0.000950188387067857
7.45115798928143e-05
0.000477636178423365
0.000714323759498187
7.37927849470467e-05
6.3053188781942e-05
0.000583609125096971
0.000505449065147531
6.06676539980344e-05
8.1519318040966e-05
0.000380688078437564
0.000461399496445437
9.74542195361829e-05
0.000107542517041122
0.000651308535033337
0.000663755920699154
9.3630208186413e-05
9.22590165768002e-05
0.000973437165803716
0.00177996631029033
9.22423379316902e-05
9.6652212187281e-05
0.00172945507354233
0.00304823137158697
9.7177348436868e-05
0.000114938739697696
0.00275121722166995
0.00283524124595694
0.000115299850615063
0.000115420556004691
0.00519534528810912
0.00411908740689699
9.69204249763679e-05
9.5762680249396e-05
0.0044012668715741
0.00435110274455436
9.59416242066813e-05
0.000107234984328363
0.00760979914304938
0.00412380934235572
0.000107786769926729
0.00011284834556969
0.00320639153006396
0.00234692011948286
0.000110591801609182
8.33173269464107e-05
0.00187563296053595
0.000897033717118781
9.17610913949604e-05
8.11785983717526e-05
0.000521329513209811
0.000299549211231649
5.48793783908312e-05
5.8097962573597e-05
0.000791726192166387
0.000560303414598097
4.65101108374181e-05
5.68080969656012e-05
0.000797362634698329
0.000585282992026718
5.4651077346704e-05
5.32611375244645e-05
0.000417836743311382
0.000423371978743307
5.47483046089223e-05
5.40197428335259e-05
0.000430792355936372
0.000389112692264099
4.96135520784904e-05
4.82877512574427e-05
2.61105015620757e-05
4.10186378028007e-05
0.000285107178658657
0.000243895181655979
4.25308257946238e-05
4.55206201059584e-05
0.000224937054885625
0.000334861376046722
3.98387360135446e-05
2.46690281781341e-05
4.25920335562025e-05
4.49144372141973e-05
2.66091537733055e-05
4.53852343509077e-05
0.000428838796560828
0.000443209929549256
5.3198699711801e-05
4.3679375487473e-05
0.000306281662043591
0.000217284780129057
3.63253384895799e-05
3.85233524742833e-05
0.00018247662089647
0.000174439102322673
3.72362529151503e-05
3.26497044265862e-05
0.000129670666208866
0.000127842812100063
3.19744490810837e-05
3.07396810109718e-05
0.000153045277723403
0.00014731338320845
3.34207159677383e-05
2.6209071406929e-05
0.000126193014998314
0.000140594119803256
2.41466908391599e-05
2.97856745931046e-05
0.000168641271861484
0.000213480035074862
3.02017990134249e-05
3.56702180804327e-05
0.000242845213926601
0.000263719123142361
4.08028655180187e-05
3.35263958715679e-05
0.000246813671821193
0.000212302292364027
3.78757986963492e-05
3.89830219020888e-05
0.000204321743113678
0.00026565101564773
4.76878508970759e-05
5.93999304826878e-05
4.7685715686393e-05
7.56735344454877e-05
0.000303538471448692
0.000370117359695532
7.98098670479489e-05
7.31513300973576e-05
0.000430539704944624
0.000575649716725811
7.03211655061553e-05
8.11283034112833e-05
0.000556419521755769
0.000439009835073645
8.01506629652957e-05
0.000373459183367566
0.000294536410788067
0.000184144798383514
0.000124809707881946
0.000137435529066527
0.000211760781236997
0.000223246524539253
0.000156881192066292
0.000281531602152347
0.000472791612265461
0.0006517216611625
0.000108922930717522
0.000110069913818693
0.000962645907159061
0.00158449035719477
0.000113287271016604
0.00011380374609636
0.00159228263576258
0.00169949342798062
9.76762176385601e-05
9.76067259439543e-05
0.00316750704939311
0.0030410908383917
9.69297186415733e-05
0.00011520377404873
0.00303893992577238
0.00171339462870779
0.000111089705220368
0.000112604501265574
0.00129363939607378
0.000935777686579151
9.50934843757395e-05
8.267591357526e-05
0.000963609686102305
0.000412008518222619
7.359718717298e-05
7.27968247204046e-05
0.000425898553902667
0.000409501222787269
4.1597229205113e-05
4.91290557222072e-05
0.000463968103354528
0.000444725590444212
4.79927718137348e-05
5.22991554213758e-05
0.000328564548652584
0.000287814497306195
3.93129563592538e-05
2.58783355583942e-05
4.45204105395526e-05
4.64378135792593e-05
2.96961810812496e-05
4.12318250288229e-05
0.000233903073652705
0.000200653785856659
3.53584205536391e-05
3.02232720860864e-05
0.000229998327774919
0.000189708407093396
2.84247628637258e-05
2.34411433234125e-05
0.000175241178517617
0.000148538791856861
2.2798380030919e-05
1.74650919736212e-05
0.000125631795334777
0.000111432268358865
2.22450391306893e-05
1.82572429093424e-05
0.000107137506186096
0.000108737572125173
2.23683163966074e-05
2.32641365623004e-05
0.000107585245380274
0.000106049210430705
2.29347826707062e-05
2.24573106687457e-05
0.00010608162161642
0.000107877497373009
1.82030242591827e-05
2.2400336790175e-05
0.000117294890823031
0.000135149674877249
1.78600284104163e-05
2.32307996871841e-05
0.000154964945402589
0.00018888914093707
2.53606354765556e-05
3.08866530223885e-05
0.000212692232922638
0.000181796049708766
3.07770407272688e-05
3.29942391543294e-05
0.000175169072382084
0.000160688194093347
3.89502169726457e-05
4.30139141982057e-05
0.000196588392190629
0.000204881360239466
4.97856984924988e-05
6.12743633096878e-05
0.000293359485206758
0.000348738012478112
8.32272069692671e-05
5.38964242379358e-05
6.98222811400736e-05
8.08281715545789e-05
5.87378044238689e-05
9.37232441361081e-05
0.000448664399226243
0.000551347793660855
9.5795827879119e-05
8.75285768766025e-05
0.000419593898487534
0.000454746372224929
8.08841197560532e-05
7.61941926673524e-05
0.000495923627990775
0.000570477706380028
7.95954798002877e-05
7.68547655046122e-05
0.000571079848445992
0.000522097808175649
7.24913353684373e-05
0.000507830743242981
0.000360812168472094
0.000410917360208602
0.000383176134108943
0.000434721906866474
0.000508570562941271
0.000626633589735018
0.000111639113569804
9.79929496362142e-05
0.000760922417912579
0.00105688476197382
9.56908248678123e-05
0.000816034221345362
0.000766808988171271
0.000720742425210914
0.000944459394668012
0.000110149356635489
9.55755346791434e-05
0.000977208101576113
0.000973065426428994
9.27792032461898e-05
8.847348687986e-05
0.000949023598610474
0.000595037454200177
7.6662699813989e-05
6.59893747507208e-05
0.000713583610793806
0.000639892707416929
5.96325070376242e-05
5.95952568130079e-05
0.000727292977662605
0.000593427997909983
6.46361926576803e-05
6.52945678765697e-05
0.000429503009583515
0.000345254552512004
6.14332026495184e-05
5.35199810316422e-05
0.000332317718157596
0.000304360572409064
5.12141896314934e-05
5.02328350432757e-05
0.000255793274271054
0.00022050022336919
5.84227583361418e-05
4.91051579190875e-05
2.98483567589569e-05
4.30343670958547e-05
0.000216296306001835
0.000181950714248247
3.62377524372487e-05
2.86856525483334e-05
0.000196977972377295
0.000190382397077559
2.4431567450106e-05
2.08153170539174e-05
0.000129821633430124
0.00014567871190916
1.61704134642542e-05
1.79032421156677e-05
0.000132793125027165
9.69731655986623e-05
1.99248250294732e-05
1.60152668460304e-05
9.70990511550286e-05
9.47683356232452e-05
1.92184904985481e-05
1.6702911813551e-05
8.56266994636185e-05
8.06160868989167e-05
1.9041111211366e-05
1.69357815719912e-05
8.34820697392484e-05
8.96924104980303e-05
2.76057215384734e-05
2.0801328095293e-05
9.73997797409393e-05
8.18299794611763e-05
2.49177159295298e-05
2.61424303042664e-05
8.70367085016048e-05
9.39993855515656e-05
2.98385376752158e-05
2.77896214193065e-05
8.96262967221866e-05
8.61847449936297e-05
2.08809243446555e-05
2.47561317863375e-05
8.13219854342587e-05
9.26668310372695e-05
2.03064052539611e-05
2.29712003115178e-05
8.94489663103481e-05
8.31701607939983e-05
1.65482360656265e-05
1.73076383283376e-05
8.31165749751126e-05
8.75634971932559e-05
1.70414727280037e-05
2.06560006727395e-05
0.000102272431988714
0.000109447524994286
1.66188395071744e-05
2.03588773169216e-05
0.00010708562349271
0.000146090242292574
1.8643197995951e-05
1.78384446010687e-05
0.000182755155061784
0.000153804563993319
1.86644645112159e-05
2.0809888931368e-05
9.62801720844449e-05
0.000102152399072078
1.57599346632548e-05
2.25064461235506e-05
0.000104134730363896
8.96730151933234e-05
1.8111879435416e-05
1.78553562124225e-05
8.17017297097039e-05
7.96040014127296e-05
1.67227579532723e-05
1.96874190298496e-05
9.02427667477387e-05
9.60852566205809e-05
2.07969878848992e-05
2.48778586161564e-05
8.4826960108593e-05
7.92275771576697e-05
1.95863542536251e-05
2.51759519111085e-05
9.49792800156718e-05
9.80574991803464e-05
2.60050966209221e-05
2.46579610238499e-05
8.75115747967162e-05
8.88629404378489e-05
2.60243529910743e-05
2.08533073829157e-05
0.00010380827035283
9.4036843639766e-05
2.10843602813973e-05
1.63211062282418e-05
7.89702343720814e-05
7.91865397698458e-05
1.83428288531237e-05
1.77145890630628e-05
8.82113953805399e-05
9.60415613919484e-05
1.99244820416507e-05
1.56400258726463e-05
9.13568795132298e-05
8.88945270990362e-05
1.97528656320683e-05
1.85158008736416e-05
0.000126982197128443
0.000160748357539635
9.15466917584796e-05
7.98414354128965e-05
6.09996749291234e-05
5.9422067872709e-05
5.97092967659762e-05
6.74112318523216e-05
8.71994067663714e-05
0.000126572436116921
0.000248306543760431
0.000334304537852391
0.000498960910723109
0.000653238651470665
9.51444332042636e-05
9.20594854645992e-05
0.000668853056369569
0.000555417524649834
0.000100819688682765
8.19048577901594e-05
0.000493372929267092
0.000429901133119338
7.27286646226179e-05
7.00757342716669e-05
0.000460637998687593
0.000472215740891927
5.75393761541739e-05
5.61349770697595e-05
0.000519703963421693
0.00041004112168177
6.17366872013068e-05
6.59693523980354e-05
0.000358352818013787
0.000297318597312092
6.49522207314879e-05
5.75364231720922e-05
0.000266710970432741
0.000272680493973541
5.66401454414902e-05
5.23354437088552e-05
0.000212349792213573
0.000197562707778657
4.85491978430078e-05
3.41856339956652e-05
4.49717728694061e-05
3.97939360825146e-05
0.000167954459816589
0.000185803118383232
3.07737416026872e-05
2.2879443128767e-05
0.000154410127784719
0.00016663279041644
1.9206498462926e-05
1.96935555286135e-05
0.000119746873197512
0.000108165086377716
2.18905643835622e-05
2.15477705041925e-05
9.82515877703007e-05
8.37235092634175e-05
2.34790288704978e-05
2.27338968305387e-05
7.51777556383512e-05
6.95151195072169e-05
2.25737560797548e-05
2.29186030207382e-05
6.06042753768578e-05
5.4272937539735e-05
2.42124058737788e-05
2.39707612078581e-05
4.97054051285152e-05
4.53893720134451e-05
2.31971714355606e-05
2.10140059436639e-05
4.31116004884497e-05
4.01421020713637e-05
2.30374698772742e-05
2.46659038782083e-05
4.05349717323484e-05
4.03330207925414e-05
2.46622561916903e-05
2.36953660560635e-05
3.99119509354176e-05
4.12807975682599e-05
2.26961602338001e-05
2.33685752474191e-05
4.19520507214206e-05
4.54273993976872e-05
2.24828663199702e-05
2.50712832541362e-05
4.99413844621718e-05
5.56061010189901e-05
2.38776922457112e-05
2.28694337437239e-05
6.15756864545771e-05
6.67954737566338e-05
2.34107806642506e-05
2.40308563350906e-05
7.65873201545556e-05
8.60806820210051e-05
2.34647385188932e-05
2.40355187420933e-05
9.38408128609888e-05
0.000120130589166692
2.33409918876974e-05
2.20861890337928e-05
0.000118161652328575
0.000116873977354103
2.17092698862047e-05
2.24603309058533e-05
0.000149355149358635
0.000142292409969479
2.85174864118919e-05
3.62358038685961e-05
0.000141320484704426
0.000153323942498267
5.13056585427067e-05
4.91066512276383e-05
0.00017380079833096
0.000182992846646769
6.39468950542859e-05
5.32870420363484e-05
0.00022367836812208
0.000251398891759855
6.21438274356709e-05
8.3183347780574e-05
0.000365104972549725
0.000468370517121121
9.54677150384822e-05
9.11290122177221e-05
6.14323788636342e-05
9.86223082668376e-05
0.000616475572081268
0.000754557335351163
9.40975883400033e-05
8.92496673911615e-05
0.000689309206135502
0.000666832084829845
8.3345951582618e-05
8.07553216588827e-05
0.00059096134308765
0.000678361624315624
9.22849345362103e-05
8.08950810977079e-05
0.000732616577994782
0.000958556671825475
8.14139490709377e-05
7.12016888090556e-05
0.000641149806225827
0.000650390594202812
6.57847406482454e-05
8.70920585253888e-05
0.000560805365456283
0.00078612406003987
8.61339053519735e-05
0.000110721234720007
0.00120781091887358
0.00109669540049641
0.000117000632910502
0.000139765416914084
0.000968259234149938
0.000852433184286459
0.0001436004374558
0.000119836311479413
0.000573406584797296
0.000532797952983279
0.000118064793011787
0.000108050936747449
0.000614211418245326
0.000430064341530126
0.000394758081476803
0.000431342147381338
0.000548543287863291
0.00010750379639253
0.000137655272720163
0.000817691164742042
0.000874509833556636
0.000117590178017406
0.000103915771529767
0.000862739434478523
0.000604312330585173
8.49161016364211e-05
7.76081937459374e-05
0.000430880886169543
0.00044910083854846
6.85296580627152e-05
6.11405135842394e-05
0.00042926104914683
0.000477429165202416
6.03340625181987e-05
6.90992077937998e-05
0.000494482666419633
0.000382161011482797
7.59781254025347e-05
7.48934424521263e-05
0.000342784167585667
0.000285252090461699
6.78498424192255e-05
6.82069530626699e-05
0.000317570981379753
0.000225825029781163
5.8676212876854e-05
5.42315738981331e-05
4.350659940749e-05
6.05064632233873e-05
0.000221431914940322
0.000171974322134248
5.49431979503568e-05
4.79373915279331e-05
0.000186123559165141
0.000182211871235825
4.86268463438621e-05
3.63521304518333e-05
0.000100565244730362
0.0001131783726439
4.83717841727697e-05
4.9117483455984e-05
0.000106551365113092
9.58600499988052e-05
5.13351831634028e-05
4.52908465574549e-05
8.07315135546211e-05
7.85136168300966e-05
4.09211240823926e-05
3.81923107577697e-05
8.15967783968311e-05
7.83786595432854e-05
3.84823524525088e-05
3.71421334150816e-05
6.93268959277043e-05
5.43424220335696e-05
3.54362631122859e-05
3.52598520998095e-05
4.48562585352904e-05
3.8348715047022e-05
3.3216625888592e-05
3.15047172547828e-05
3.47800556529832e-05
3.2692670044556e-05
2.94843299408196e-05
2.89163681401608e-05
3.15616206915771e-05
3.05571800020747e-05
2.74367570872032e-05
2.74792621707217e-05
3.01740212325413e-05
2.97092932536564e-05
2.63104424041848e-05
2.66144888910558e-05
2.97553529858149e-05
2.93424604153106e-05
2.65200669796279e-05
2.6315743226088e-05
2.89023832124247e-05
2.87289389413484e-05
2.73417890586892e-05
2.75850458357661e-05
2.95583778316936e-05
2.95236973263908e-05
2.73362993853099e-05
2.71110903346844e-05
2.88361679437249e-05
2.8887697060905e-05
2.70521187980391e-05
2.71081196320289e-05
2.92887231636798e-05
2.953722396411e-05
2.63499143155284e-05
2.69647886737358e-05
2.9003712754885e-05
2.94247727829505e-05
2.75186186741477e-05
2.73242639353971e-05
2.9829285462558e-05
3.0609058560588e-05
2.83650274048477e-05
2.82221039745889e-05
3.09693365340757e-05
3.19455223037353e-05
2.98003297846683e-05
3.0485801288246e-05
3.31739485786798e-05
3.54300443340196e-05
3.25419774785372e-05
3.38542657920481e-05
3.90851028704033e-05
4.56506474095174e-05
3.61743559413741e-05
3.6781570139457e-05
5.5515872030813e-05
7.14606772504179e-05
3.89463678785495e-05
4.0386532935635e-05
8.08980166498099e-05
8.65766922940213e-05
3.99896430597678e-05
4.30364400006548e-05
7.98336909277824e-05
8.47513207831952e-05
4.58935876063835e-05
5.23527535677066e-05
0.000106665931859152
0.000117188256298999
5.31863525060605e-05
4.23040338635972e-05
9.55043987657501e-05
9.36732735513787e-05
3.26974754037434e-05
2.94166426570851e-05
0.000103083822597766
0.000101445460883321
2.53978941584215e-05
2.6629937636766e-05
0.000108512442812679
0.000112600336516859
3.14205430535834e-05
3.91774481123924e-05
0.000108559499415482
0.000100846237751342
3.72573115299271e-05
3.25226795754754e-05
8.13414092835012e-05
8.06769369893346e-05
3.74783533851334e-05
3.16369469859371e-05
8.2864389551121e-05
8.07784958137897e-05
3.20552597877701e-05
3.11906717701813e-05
6.93289913807281e-05
5.48574489452185e-05
2.92805397026459e-05
2.89940651197192e-05
4.40070552432812e-05
3.71308062659764e-05
2.6769433765904e-05
2.61501090799272e-05
3.32795912793559e-05
3.07167693024871e-05
2.43075235750863e-05
2.41671340754201e-05
2.93258144310062e-05
2.82386082340037e-05
2.26111749310446e-05
2.30059683203165e-05
2.78171655486485e-05
2.71529432924127e-05
2.20684885871592e-05
2.24303025866422e-05
2.68214885652061e-05
2.63618290616234e-05
2.19948468086511e-05
2.13819794672951e-05
2.67738756710813e-05
2.65497613822057e-05
2.19563151695644e-05
2.20988992313953e-05
2.61117563626878e-05
2.60713408269703e-05
2.21382384565391e-05
2.20466319951856e-05
2.66751452067779e-05
2.67350445081073e-05
2.22416466897024e-05
2.23005292456727e-05
2.61183233863787e-05
2.62759890383473e-05
2.1497364205276e-05
2.15918853495155e-05
2.65901647196954e-05
2.6903199632517e-05
2.16159702631669e-05
2.13412048059568e-05
2.69479095048223e-05
2.74148837028858e-05
2.24618004606162e-05
2.20983151222422e-05
2.78369836907312e-05
2.88510517348547e-05
2.34815885075957e-05
2.35894370790943e-05
3.01216492024477e-05
3.24918214149674e-05
2.54830096032072e-05
2.63567197956632e-05
3.62647254001343e-05
4.28242018454719e-05
2.82734846636333e-05
2.82310209462677e-05
5.38056836009751e-05
6.68933888962154e-05
2.98603651914461e-05
3.07862052333623e-05
7.78145360354731e-05
7.87855737670105e-05
3.02934207269254e-05
3.59498042077548e-05
7.99645863020904e-05
7.82769802372262e-05
3.24575064079652e-05
3.06018145050839e-05
8.11823181845047e-05
8.03622138695337e-05
2.63665389159245e-05
2.71196106699544e-05
6.95344021037324e-05
7.01789413982095e-05
2.65781435417339e-05
2.50136739623579e-05
5.32268572191215e-05
4.67306190390216e-05
2.52944926035225e-05
2.34830232794431e-05
3.5875822578052e-05
3.39638913569877e-05
2.32744591415996e-05
2.12896739437956e-05
2.99409848486928e-05
2.92420677795049e-05
2.16714330344579e-05
2.01287215751138e-05
2.76544341377213e-05
2.72530629029144e-05
2.08769213129609e-05
1.95679122067304e-05
2.64712163909079e-05
2.66972279338486e-05
1.99587123149546e-05
1.99639897701997e-05
2.62287075377016e-05
2.58341404776211e-05
1.98784297886401e-05
2.06028731556163e-05
2.54821050456518e-05
2.64323241266407e-05
2.0448195952002e-05
2.02949708894225e-05
2.64446680800697e-05
2.54350529894465e-05
2.05667879772294e-05
2.04936604787498e-05
2.55050270975607e-05
2.61097849549699e-05
2.0283207250888e-05
1.97243175964022e-05
2.62036213944725e-05
2.58042478965276e-05
2.02995612227516e-05
2.07844785927085e-05
2.65545672487254e-05
2.68300637779251e-05
2.02130509887472e-05