/*--------------------------------*- C++ -*----------------------------------*\
| =========                 |                                                 |
| \\      /  F ield         | OpenFOAM: The Open Source CFD Toolbox           |
|  \\    /   O peration     | Version:  2312                                  |
|   \\  /    A nd           | Website:  www.openfoam.com                      |
|    \\/     M anipulation  |                                                 |
\*---------------------------------------------------------------------------*/
FoamFile
{
    version     2.0;
    format      ascii;
    arch        "LSB;label=32;scalar=64";
    class       volScalarField;
    location    "1700";
    object      omega;
}
// * * * * * * * * * * * * * * * * * * * * * * * * * * * * * * * * * * * * * //

dimensions      [0 0 -1 0 0 0 0];

internalField   nonuniform List<scalar> 
162506
(
1.03451185930825
1.07662231657488
11.7856351141204
12.4495954973099
16.6335714369094
14.2585703562259
1.59027234440096
1.21832508506182
12.904012841441
13.6380659445493
14.1861245370232
1.10881767870383
1.11131657186514
1.01921549165037
1.00297999934392
1.00607042108787
13.0955832785038
12.3548788924254
1.02202855884144
1.46606861379735
1.6657241236574
13.3401689918679
12.7729296196769
16.5121417578541
15.9606933542443
14.244793230179
14.3964001748589
1.00632417712328
11.8143756480018
12.5091827071449
1.00241096472671
1.00026625451012
1.00199738841213
1.00002297895426
0.99989448617012
1.00379899792396
12.2940992933355
11.6840030539846
1.00902062990123
1.61901930189634
11.6729974401616
11.6196994030988
1.47102076396325
1.67965635251662
12.4313224780539
12.0560065676834
1.13995957890024
1.65959519961013
14.5181253791984
17.1148225282707
12.4965710789392
12.7377031173486
17.8384611573085
14.9943024726151
1.81332516386961
1.52610884424707
13.6490025584728
13.1535640548801
1.44843098294305
2.41221679240123
13.8170720474743
12.6470113887876
1.60132873946633
1.03329003666837
1.00676614622032
13.9019360187427
13.0361243974363
11.6869158323402
12.0024580811939
1.00216330589796
1.00816419859173
1.00253200676257
1.00060268122454
1.00199227111547
1.0065523574689
1.00760987754132
1.12008337091404
1.31298965861346
1.8497193627155
11.9884519997695
11.9532604322864
1.53239995290405
1.00559837995593
1.00179030270927
11.8114412010257
11.6054414516493
13.1762210353961
13.9108967805477
1.0038835272232
1.01000338045436
1.00011778848603
1.00011100928532
0.999955675704376
1.00000192545039
1.00047020947935
1.00002767311957
0.999912174785775
0.99983948331327
0.99986026266703
0.999923117645162
0.999913056829185
1.00004743272342
1.00906685460223
11.6805825572942
12.2896222739545
1.0037205871141
1.00227560459809
12.496594259549
11.8041479259264
1.00620001773835
1.46888005774332
11.6100200157776
11.6697585041137
1.61850781612804
1.88056883566311
12.7244949453691
12.7292530405362
1.88180664300607
2.02042761910508
13.4199645463026
13.0096080378679
1.80743096610192
1.21735580216432
12.3969389704173
13.5338471295063
2.28593588028102
3.11166320304218
16.2309163908199
18.9490421870926
13.5103121919913
15.8230937797943
21.7773437096475
19.4480050243035
5.72827787495719
3.60464153852643
16.8257484397791
14.6522844569231
2.33572781620957
2.66058593230557
15.5961462763837
14.9065288522618
2.43031820673375
2.66617924599119
14.6605838937907
13.5245929936733
2.52094106912554
1.83661133752486
13.2115017940188
15.2974364260788
3.19405635366512
2.07702529656761
13.2957414694791
13.6020685823007
1.88366893979584
1.01321982378863
1.00525590976331
14.9669423967299
13.9111835465138
12.8154071211966
13.625356410495
1.00477212428962
1.01060958758447
0.999925170291116
0.999940213440265
0.999911645491561
0.999769582533463
0.999803009280556
0.999922048938363
0.999975908321661
0.999986239662822
1.00050473100262
1.00007370275071
1.00035606235988
1.00213508396985
1.01995858437787
1.00330934821977
1.00433213996961
13.0739494162193
12.333304214101
1.01948397586058
1.0703575355502
11.7628797898851
12.0304695365245
1.13312165842775
1.67636386288464
12.4187726400777
12.9948432175396
1.80499958165601
2.01897164296881
13.4132757134011
14.6137029030306
2.73501097728927
2.74788642176549
14.6352644679551
14.1965465716359
2.60862383015419
4.38031749729354
17.4532098953332
16.5670904204735
4.19650350998118
4.86902913876088
19.8262569815599
20.3775676718347
7.56519007446081
8.23107315743213
22.4226055734293
24.5387305796865
7.94555259820195
5.94796812171457
22.6293749323099
24.4155504997774
6.83576286038978
8.93987898794961
32.1975150944071
38.347345596508
11.0840939367952
12.3821419012621
34.4617217451794
37.3122043630847
54.1381526746072
32.0018640375211
13.9696246944605
12.6387362212765
30.0771758912478
28.5537293365771
12.2446729904202
11.8793698338589
29.9721634522668
40.5646771688481
29.1483898389213
27.441436948746
9.20534273948973
23.9757886447734
32.5244645986202
28.6462835433128
19.6722228671725
7.81892501567999
24.4908071634878
20.6068703429367
6.08286679806735
4.32474613841598
18.8775344762298
16.6885277375742
3.19989872899058
2.9598603101073
16.0787444961255
15.2883815951158
2.7558225621056
2.07570649808138
14.8633720878868
14.1534852414022
1.9835299407543
3.52580688980963
17.1323339790171
17.1379405540732
3.48581324110209
3.09091819115343
15.3369711705657
13.2263776165007
1.69013475508105
1.3200323348851
12.4084188381995
12.401425315853
1.32872095396251
1.01034391214271
12.8009993771503
13.6086987877379
1.00482128532323
0.999955124491616
1.00005124300696
1.00101021776547
1.00003226878536
1.00459148750366
1.01696312678425
13.869930261342
14.9182942047692
13.8559396027532
1.00534246419312
1.01138158455568
13.1299495671401
13.2725958722434
2.0985279434327
1.54314522729325
11.9440083728069
11.9906310925623
1.85635146735458
1.00790278383727
1.00225613677891
11.9725405333015
11.671559492075
11.5794550070305
11.77427946568
1.00203045850485
1.00591023790694
13.0125232673236
1.03252485605933
1.00643533667911
13.864316822057
14.1613283685151
1.10204446056794
1.10379131279681
13.4366362225361
12.7321861771083
1.31369714142222
2.01800149324379
12.5954319216127
16.0140905134313
13.547854985127
13.2671853100178
13.7992790567596
1.16681150975865
1.15138163271666
13.113116333053
13.4797177964116
15.4106460649971
15.3805359876374
14.4627942019772
17.0622307951679
12.468153496864
2.0964234826593
1.55147320317015
13.1431946964195
13.6570875156347
1.65304994886478
2.2625810067159
12.7038605811028
17.7920610078146
14.9512366173658
16.2934157607099
18.9427571707733
13.6840740200748
3.75512908478932
2.36339592143396
13.5186569023597
14.159672137065
2.5924044069281
4.35627517438171
17.2877617651101
17.869575800237
4.46164369391151
4.48550013568953
17.9414423022999
25.4998638658663
7.22183427367516
9.75644769635822
36.5057894708499
44.8663987757832
11.2439404065287
10.8287088448501
43.1601115934424
52.092017334339
16.2507390164877
16.1001704707672
46.955434392972
40.6746568142391
15.5408838125991
13.9855765389358
34.4362117094642
56.5133673937274
41.2215987340175
43.8618291070632
54.5480871042735
36.0526428059
15.0807145732096
12.9392829072465
34.7742146290686
32.4201353301973
12.8034606352041
12.0705357622127
33.9712204818699
32.0832183057959
10.4323626212642
8.95280656780781
26.6986749251162
23.899835899789
6.92379777342206
6.47919069192767
23.8072567525125
21.7574040191235
5.71750566152568
3.67186744235828
17.6668682753633
16.8705697818699
2.62162709247353
2.19034617237579
15.6088460649033
19.502270047417
3.86919628626357
3.7397521646961
18.353172829602
18.3337657155128
3.74553654925642
2.04822873113531
14.821452334142
14.0847840685171
1.91174276826466
1.91592798677645
14.0793626825974
13.2250049078532
1.69043171588881
3.10442647056343
15.3372084271586
13.583105963963
1.91021847374525
1.25922663477511
1.00128801261854
1.01041974125636
1.01817112968257
1.00081976409609
1.00030752656208
1.00016536611563
1.30022615185419
1.11919395500779
1.35729618553195
3.2176125119172
15.2979869668096
13.2092301740515
1.84654070563067
2.52976329179198
13.5313943504498
13.8231918769814
2.43045901239429
2.47206158553812
14.9296650786541
15.6585117038341
2.76005656011781
2.55229447550134
14.7300959885757
17.1685565987129
4.02697754602912
6.29873876307707
16.4061716649737
21.8708683991022
19.6319309005619
25.0733387615313
28.8459008442329
20.9199052315495
8.65680569321105
8.15125286378477
21.0107164239501
19.7414930746575
4.89570510756063
5.97748275964552
22.1123541414776
24.7820710184654
8.6271853078823
8.89707138355209
23.5316439084623
26.0070126142907
10.0167408989357
29.1686919056862
33.5296737029209
43.467993021667
32.4679321339997
13.52943308174
32.8248368377117
34.4755876903895
14.806570521109
15.9709871923398
39.0586935056162
39.4440709883771
57.6531466363914
41.1131617115014
17.5165169996606
14.990021205482
36.2257905581527
38.1869606528521
13.0361190511832
11.8963158542513
42.5460291476795
44.1945758362716
11.7013455889176
11.3352938597286
45.0372921424629
45.3480823740081
11.2929446271891
17.4204097828212
54.1898707460718
54.0371670067265
17.2447226416908
23.3489215850546
71.4080478868387
70.0013067558022
22.3446565151478
21.5127929674604
67.1427976231128
62.6353268937649
20.6829328739359
18.4593308192817
57.2293428471317
50.6730143044171
18.5465283868941
20.9522188127176
59.5349455296426
47.0136964132337
56.0142834716979
37.8578286017498
15.9111113481352
13.1901045311276
36.4490731764047
40.2650006845985
12.3541432889716
11.2926303947265
38.4664579044936
36.0895371762072
11.1353788658339
8.26569081044748
30.4490352025072
27.844555097421
7.59308271017458
5.11683191858922
3.31856297136365
1.67696447480524
1.78024468554379
2.29301695700565
4.54839876611041
23.4465167826303
22.542217771166
4.70015311920432
4.45785839078022
24.4092429799215
26.6804752702239
4.93951622212796
4.90121942476778
26.080597615871
28.2895046060754
7.48796860208992
7.2371630228872
29.0031173787333
30.3148517504789
7.1497177169188
8.75553254952548
33.183858424996
30.6037333522906
9.06134601057715
7.05126591946912
27.3166989335514
4.74708931904853
9.43925695232505
30.5869238346607
38.1763587369255
11.7933108087572
11.1791851660873
37.0491064109543
31.2546822700917
7.7449515611977
4.84606620532666
25.4125766887412
25.6192437239145
4.79479494852505
4.82566655827934
24.6199845990361
22.584572217228
4.69212266929705
3.97864813504122
20.6809664793519
20.6445250646925
4.00331079604917
3.88739570894578
19.468331458742
15.5074324455711
2.12246486128051
2.12947503861054
15.4929352383621
14.8127187059722
2.05690655061202
3.76001152296654
18.312005546911
17.130089823701
3.50282337274635
3.53833964204123
17.1283020786769
14.1430998359002
1.9932582960356
2.6784493470307
14.6655901555456
15.2818608089618
2.75806438724817
2.94220248707599
16.0348070663426
16.9463073256632
3.51369963914125
4.74528854358426
19.4353675603617
21.5864575380001
6.78876130093494
10.0435727226677
28.8417564614545
31.7879867286639
13.5131768296703
15.0204223621061
40.8202105604577
43.2491628776532
16.7972027560003
16.4157152634936
42.3817759350632
47.1531263792556
20.7874984495225
20.8367812848992
49.8184879262212
47.5357667176546
18.0412326089125
19.6511376885679
52.3307974541316
61.8651753072573
85.4118239531913
76.2922749212711
27.9273295323804
30.6900453325177
78.2893725298727
71.3668876299457
28.616448810447
23.7696166203814
68.0227914142529
85.5398499323782
55.5441593858607
49.174636039319
73.4747260121598
53.4717713555947
23.545895940187
21.6423446361986
48.6658693906097
49.283050670847
19.1601594645908
17.6702899863941
52.2891378657324
53.329995531863
17.7651819084689
17.523686422794
53.8435654326376
70.4460206817612
24.2173768107037
24.3453335926002
70.818826895125
71.1282549953918
23.7024853929955
23.8436032615495
71.1739543083017
96.3631614512243
34.5801282331995
33.8791658485999
97.048818055764
95.7654869684926
32.5656738865529
30.6829265762984
90.7237852374999
79.0963369147581
26.2233850576953
20.5291387285757
66.0005218897682
73.8015866994433
22.9464570716513
23.3490260459584
80.7368619846273
83.7872171679369
24.3299245626912
22.0941003250435
65.3066366740583
49.3646358554253
58.1643830334352
39.2758699624026
16.6804283241903
13.4827061569591
37.8998230770275
42.2950896988368
12.6095608262307
11.4103173152269
40.3310674593477
34.3252493804406
9.19894155121876
8.64918733586981
32.8793212852522
5.82425522537803
4.057131329773
3.84287968165088
4.60333539955589
2.6592647317666
2.29885646356226
2.06315876050452
2.22861358898554
1.45132962087869
1.2725119347253
2.34865795516178
17.5292889779447
16.867688309358
2.23263740499421
2.16978863163426
16.1810387323111
16.1472514877525
2.15324508961392
3.97511716231037
20.4910504312145
19.4159779854666
3.90508792644895
3.82421304737934
19.4295288399009
15.531252356752
2.18300373091519
2.89737971769168
17.10873291442
18.0302821479982
4.05209642534382
6.48932122436038
23.3511667324707
25.729839588662
7.96639183281551
7.66115818462548
25.6651594227301
30.3760358192337
8.71353221421669
11.6668650725832
35.3628310451323
40.2742612108961
11.9820213229341
16.3073815288302
48.3623761235733
56.2100596865479
18.9528772591187
29.3447473378822
83.4765847856851
96.8268314694723
67.1669977593257
65.9370882148092
95.6116469802069
90.46090864865
30.6100737103634
36.3413996157302
105.460858609224
106.087860074568
42.1750028918451
41.2243054600081
107.557350348732
131.39662864177
46.1223201927503
53.1633432623767
147.585457146405
142.413858335668
50.871608316702
51.9954848317978
141.385719907835
143.798028901992
52.5143121227871
52.3953273845263
143.927252309483
145.018931218433
52.3347839794977
52.5710827825268
145.250922203094
145.557032227613
52.7646647462192
52.0796808869755
146.106429156315
146.239800725311
51.5389757362238
50.2736547883157
148.137829865779
151.469910888733
50.3414783239631
41.4332000083895
131.417423639985
96.5427868423241
30.6195195602833
32.1082662231536
108.313582139822
113.733093910488
33.8231660271581
36.1178381333331
120.510991750837
86.6143847363283
24.722053966972
25.9835351994262
90.2457321907187
69.9016662050874
23.1943323939669
17.3762787533238
40.7939440820934
61.4852664193801
51.782800077297
54.4755469579002
65.6015515337535
42.8254234148109
17.8998508241517
14.2895061322721
41.4654996183874
39.4151234106915
13.7624778427556
12.9695331055732
44.3948782658989
42.2870383627685
11.5913581253004
9.4368051742192
36.3332666426183
36.5977942323836
10.6976152080753
10.3442610159647
33.8867094388072
5.72114810564503
6.36122895033674
4.98217173740911
2.31403913964964
2.48120948148167
2.20189174030424
4.32153102513097
24.3354903907554
23.2235226102736
4.20936640225629
4.1314941405781
21.9532299604431
1.91441621835826
1.16201000061078
1.14771914188172
2.21397872541625
16.7715820612953
21.5703469152166
4.02312952523378
4.03200396171226
21.7662160699523
19.7543257094642
3.56331171139645
4.47950636931959
23.1043242391187
28.0427213824867
6.95380695221269
8.82404064504088
33.1647632843529
33.8773856621435
10.507548317628
9.04019496533069
31.3621939719787
33.1523396199356
9.31361776749766
9.79476031680215
35.5300846545687
43.0267829054348
12.5336223126851
17.300931828235
52.3141061834614
55.2909406567162
19.3625150755235
19.5949871677356
57.3790963554759
67.0146240579695
97.1081426754018
95.2689235371891
31.6821536936701
37.9082377185058
113.882700702174
127.134801404777
48.1592232208096
53.8974780864461
146.721492933641
192.673034665948
59.6764056185986
65.8924975190106
258.227454073995
295.102743816887
66.8616045101921
70.6873524239179
283.721710834002
277.243103204197
68.4145634565122
70.4949975923484
277.803487360623
276.993594974176
70.9481151030894
73.6752912665391
280.319744984656
284.990163781808
72.8827001733455
72.5337185572621
286.320130781243
286.233388764076
70.9609709771939
73.7430084327866
287.302978829953
289.909827829134
72.8880945817712
71.7504440597723
290.093661726644
290.143731398696
72.6983110545003
73.3830080767709
289.760203398212
289.257141588913
74.7097212247068
72.0963292531217
288.055458054097
288.425155260782
72.8292892844585
72.460836161788
286.615520597606
284.158882066774
73.0805377770658
70.4348315593993
281.258507703196
282.263999110819
69.6524604652174
67.08256128975
281.872150575805
287.210221456975
67.8202672568644
63.7544520064583
298.842265815106
259.129950233955
62.4452440146735
61.9918334592559
247.734379738838
238.770935056685
66.3029789412744
64.9433905003823
232.989942385967
230.22427777443
67.3462260868922
67.0298725039927
227.438353972186
227.757155009174
69.7268472458105
68.7125804117035
228.149174171578
228.374876360689
69.6228328207459
68.4433648869912
227.49582976526
227.750039273858
70.3234594929088
69.3424366005027
227.562476706653
227.719686318689
68.9170047448569
68.2729475127956
227.468863501754
227.230010526571
68.8018297398272
69.223929764743
225.631251039733
225.169823968781
67.6433515603559
69.2668984869048
225.509943540152
224.944296051893
69.0359229468946
69.8477745468991
221.688319426388
220.501097781225
67.1713041651115
67.723467996494
222.219791724596
224.4212443543
65.7299630334662
68.8756141702546
230.973639418763
242.157078211995
65.1556714447113
66.3913371073278
36.5812011554848
23.9414556837617
13.2991750450025
10.5588793519
7.12125224240935
6.0111553838614
3.57314684472904
2.80096082494769
2.46879660838314
1.85859919982265
1.80230532471103
4.1358144645629
22.6569381927171
23.3843037939372
4.32673170888595
4.54525683446645
24.9493118630308
25.118794751447
5.06182627980126
6.76693036047979
32.4938572900399
30.9133616541079
6.54154675263287
9.70638100809509
38.6437907415516
39.923441702446
11.5086127954243
9.66681622253526
34.4530989172613
36.6066645448394
10.0070800478818
10.3536717339597
37.3056988317718
45.2934214469392
13.4491673733512
19.0723820273793
57.7642257523603
62.8684176468998
21.2160219095706
34.987777068839
75.5393679972787
105.863982477456
95.3250803470144
123.216305371415
39.7011577461943
50.1066867295008
144.621016602633
191.96448766504
56.916431739844
72.4677099618762
290.988949877443
333.519213213465
73.3944843390816
73.9637428558983
314.918557718605
298.787175053867
71.3047459682048
77.1344355478822
292.087704035547
288.668269457575
77.9808993511733
82.2396297299269
294.69515436674
299.82792999922
87.0219679461445
92.3362388703418
305.726695486279
309.686680164837
95.2361257752684
98.8331610573664
310.506228618713
310.962092384529
101.314760084192
108.592182095327
312.917773510301
316.478081839732
107.254264469748
106.271535970687
316.206721644775
315.768641490384
108.016094815783
106.319222613104
315.344297663422
314.046889279326
106.446138997634
99.9806251317179
312.232291167517
311.949399994399
95.2371370984429
90.893157746266
309.684175481027
305.091491548477
87.7776272465717
83.425942774834
297.837933014901
290.375129897243
79.0688083500009
74.3633294918709
285.148941108631
294.748798737654
72.8012441401307
67.9396825510608
311.172954326855
256.592035484938
59.2917887288248
57.6918927542205
251.847667050955
165.968983473858
44.0719134394741
47.2753893240616
174.481703505522
189.656148299096
50.5087128806104
53.9083995270323
212.514136783782
129.265588824445
38.3923888434634
40.6165607045831
140.945368634496
93.5930164385945
26.2739832757572
27.3275727695074
98.5105986910447
75.211040823473
24.0934068898718
24.6142131939982
80.722551658193
59.0917632800991
73.2855514977142
48.9250961495614
21.0605860105965
17.1528738213782
48.0448933673627
51.6551878627285
16.1195037847765
13.4821433915876
48.5274657486882
44.4207136792034
11.8036874127068
9.65128196884646
38.1641041509319
38.5777341436154
10.7732343496214
12.2296602875555
45.7243422375533
43.2678631772203
12.2542642547105
11.3732991580047
42.1430195817095
33.3179003764219
7.09963173025313
7.11495178524796
34.265757803082
28.4589968940218
5.7713274179153
6.21831752471018
28.4569364799111
25.6360301129645
4.48406266363135
2.57638562985099
18.8750325314872
18.1428177615564
2.48996270607287
2.50552416894017
17.9956366001657
17.3750917469387
2.34166791776417
1.27915015519669
1.47436969492043
2.00336924077836
4.31552812577063
23.7982925230362
25.3019754966828
4.58838383880365
6.27791582064257
28.1431636209317
28.3050023564884
6.16209612607793
6.64561810719575
34.3885268243451
33.4314564184617
6.50631887590336
10.1151841607209
43.6771457933995
41.6939272922319
9.94523960018954
11.7480641179086
43.0870390606632
45.425800530903
11.8706392301876
10.2938579523899
38.2788663577042
38.9184907609583
10.8272357341126
14.3193625725393
47.641857993261
62.7654919044192
20.1221796243538
22.1185997368677
71.3772449907658
90.4918454395645
125.808566887632
101.561416117444
37.2939838154517
42.8283579516371
144.562844897684
173.321833436709
54.3085016651283
63.1286068147829
237.049448677501
343.578538876281
73.6303724969574
93.4118695283887
452.284617300804
422.303789882989
96.0245704784186
106.315621870021
424.999016773417
504.404984926537
133.485209562293
169.904441438285
641.668986417487
799.929041744003
201.961864535691
215.632119698086
845.584407064677
860.049177697676
225.894558159357
241.000188860342
863.384923428478
867.347718163203
262.740000983262
284.74208725432
865.521893140645
863.964987673896
304.439511939745
318.928282715907
858.030620958369
856.441372547525
331.66415175642
340.482411771205
850.330875072114
851.216342082944
349.578071656551
354.792885884255
848.036627167154
852.198878522382
361.980563080446
369.891299599847
852.623452706663
858.380999196092
377.915161045112
376.915091443219
866.908767350458
869.87108270237
371.522167176594
368.926031280158
865.813889351234
864.021460899831
376.372347362056
380.380451935046
863.671367735297
861.728276745858
373.308179807466
372.019286258743
865.611099053061
862.237009206109
370.294495202248
369.414765470912
864.748247785237
861.289392333129
361.174111679766
352.714787399434
862.957283780933
861.01879091169
342.931407165288
332.819637619228
866.18093488869
867.316398195224
318.920869885657
303.404406648658
874.665592726071
877.149788225422
283.155102384422
262.768119078957
881.518488122541
879.53641391408
242.659132578829
228.626092384693
876.467112264085
860.292056740166
218.1574380026
203.09383876386
810.577928788553
646.190155541561
170.860856480857
136.093829597001
518.099133255062
458.958106591072
111.181347668441
93.6377333104401
459.035770426052
325.551601179885
67.2623451491455
63.240626214781
298.858698925161
281.405037935114
61.695889501934
58.9701580765159
265.337160258109
335.547600309413
71.240527497945
77.972591374375
367.143284736461
408.048856664436
84.1265079740896
100.06678200146
400.165797203988
434.934780414786
121.865715462417
161.053884860784
586.840732600252
704.648934881048
194.571653106021
207.476329067718
741.579529935053
755.932521831082
216.684685960111
224.631225917712
762.000996265249
768.133374560358
239.830865400119
255.78399250114
765.816126227216
767.725481873066
273.572320329586
287.728880810831
761.904767932556
764.044855279292
301.033993112857
310.717582156335
759.244573415915
762.91368560643
320.251414028252
328.055003351189
761.418374071589
765.43853499479
336.180210460749
337.091576856163
764.158201857938
767.077761745186
339.734636837914
340.727465306659
763.945833074998
765.901259303421
347.155366989043
343.212523288445
766.456074187112
767.129780951148
337.256764748069
339.619803298116
770.33273913904
768.542636573785
343.36517629317
344.275496869004
760.619644386172
756.148193825937
337.080773971354
329.406550436779
755.162314607945
750.986081970604
322.388160431944
317.508057110667
753.956897139447
751.131452321562
308.334318613491
300.1860635995
756.691462212919
755.012513348437
287.99912195394
274.726075961413
759.382163847175
756.973584271437
257.489887251063
239.544489053143
756.867263120091
749.558579646186
222.743553603092
213.865544387513
743.681937003888
730.285291803777
205.065074928018
192.970150302478
696.140999252865
582.170092663311
159.995208985764
118.50507105909
425.992750856298
482.776613284164
148.186110720988
174.356934862334
546.39400498166
567.409986259073
184.633925187294
192.582744885106
578.298797588673
582.33586041005
199.682841073897
212.125802717141
589.190048396688
589.39748320991
226.105812162283
237.855089429378
594.595447812401
591.841760622444
248.674935910201
258.597292935355
595.701498243921
591.116239639436
265.72215896622
274.065325465531
594.733946418239
592.395171099927
278.59047104276
284.639388590896
595.767477413044
597.156237332507
292.119398859698
297.999284125493
599.893155736831
606.471800824801
297.118505385257
295.2355429344
607.494118189554
605.236612875556
293.14908879865
296.939172457809
605.08360194475
604.461493719769
300.596103453161
295.800745939546
603.085800485352
605.268756665343
295.066879890066
291.598130932307
603.010346852716
603.28200513105
290.878706072327
283.537378158419
599.74786552184
600.834346299982
276.451764761304
268.238252493959
596.576477480477
600.589063898619
259.46085077094
248.636136978692
596.24087121586
600.373817594494
237.195359710296
224.762169908826
595.028841183889
597.120460439585
212.775429354027
201.142681137401
590.571427853691
586.292817470461
195.115087021154
186.921793507089
575.444194066934
553.560105206911
176.294185981087
149.387278181991
487.682581219134
400.184448323491
127.692597746529
99.8774935947143
355.212932129978
353.723011570373
88.3825018637127
79.0752228268102
319.191874784047
311.024878106141
82.9622457247747
90.5516617057865
321.740322062882
334.061848705061
96.7067360933953
141.376279219764
426.428718570605
436.055944494605
152.718914448639
170.451592181829
438.671855917378
439.397606897671
189.445873099617
205.854696659907
439.450549856903
441.544974241478
219.109993328129
224.22760442954
443.503118369278
443.511046324396
228.486360285265
226.138593846757
444.499400254996
445.578507491035
226.982163350298
226.326454540418
439.625549559646
436.409849733786
214.368716602102
203.735122586401
435.647953092703
436.11062794021
189.446050413708
171.809811893206
434.521646178066
429.798595172724
152.698384766497
139.75375814183
420.269689242878
396.041944912568
125.679923288915
97.7060273736144
351.49332348298
332.915285952485
82.6515245911907
94.6496632317097
372.414935714092
375.989590785024
87.7503121924428
84.7495132930737
403.165612276435
315.692501533117
70.6625376800694
60.0964284918617
208.495724706475
298.666637782515
70.7125810294104
79.4061826523002
365.481914636289
341.513685927749
80.261751993008
76.0738189989178
321.631307149938
309.99531647093
75.6091380608778
83.0372355436113
313.657385903167
319.556367436357
89.0377708273226
95.2769150207957
329.369043912119
335.593579342652
103.424149531231
115.321091563087
338.83976692332
339.790390815094
125.717962688663
134.813748065168
339.140450624831
339.07316948821
141.664157300102
151.245370178297
341.206726397424
344.932814787085
151.165609387154
150.481709667295
344.486641046486
343.91071168021
152.17554979142
149.076307104719
343.516880413854
342.637828297241
146.349612327665
136.566039868972
341.464503628165
342.402310221073
125.656876422588
113.821791040116
342.444922685021
341.178654636633
103.395524845136
99.9711764972791
84.3807610660734
80.542671710966
75.8624408789676
72.9240443210286
63.0104913410145
59.6682708671305
55.5566741617625
53.4047839273264
43.9973177012783
41.9532368526849
38.137653477252
36.7227902764516
34.066940703431
32.380280726861
30.5856584686246
29.2856844230523
27.1764328489116
25.4692509050816
23.5522374200696
21.9153871468227
20.1249869819092
18.3400329327077
16.3066885402481
14.6932367697998
10.275832392434
11.5545202683634
9.23459511215582
5.88470835627125
2.86574852309088
2.03200538331208
1.42544167924943
1.54008698246339
1.62318665711156
2.63628428198305
18.7887377944688
20.7415846346598
3.89654163926901
6.81280391225049
28.9047429748722
37.5527285619181
10.8097350435847
8.29730631744985
36.1596721556833
36.970024554042
7.00248036684203
6.571166979506
35.3626724773997
47.4440824138479
10.1398562661561
10.2162341064005
45.6470572705884
47.7107216673566
11.9670417443234
11.3672459721607
40.990510991154
42.1373272944659
12.2107877706744
15.0304728216227
51.2871578160149
67.752528921098
20.8199281165183
22.7198802993155
77.3089117307573
100.153805892103
144.755311214962
114.973096636497
39.0384325049645
45.1648350294514
172.721320005313
223.771704825446
58.5389329927113
69.3219681360421
362.289442492952
552.87867353664
84.7837419180152
139.74911571065
826.381597432817
775.614931504973
141.591791771385
170.52665621998
836.35620710966
1113.3478496031
216.526215927297
295.66545285244
1600.94740069238
2128.02349701182
401.537182363739
436.627681759027
2238.0361901333
2241.27088251123
436.839262281078
444.161148101799
2197.18171434781
2125.90723516245
461.50588183558
481.479562849886
2080.30043876999
2111.20252451033
471.91368567008
442.93269259118
2160.28302092003
2195.07788110733
416.58624363072
408.98303962754
2220.01699449637
2226.35490306159
405.575986054327
409.321242010204
2231.80379613362
2234.14696261854
408.83752799252
411.400007051704
2226.64567023464
2242.23620303799
417.396549205131
416.370756579627
2248.09787469489
2275.37692155215
416.735287439021
412.886088628024
2266.12835419966
2245.50853657238
413.091377255687
416.916002378533
2247.51438229455
2248.90160766617
413.863241890815
415.478388400632
2259.22989497442
2245.55875597526
415.564424353132
415.554592887632
2255.91796766944
2259.50731430333
413.911097211508
410.151248219463
2255.12893111635
2247.29029573843
412.290640617732
419.046683834888
2221.70343326343
2186.63743781054
444.512292123554
475.135209846036
2142.22352989574
2116.10324468762
485.307239246965
468.049892771219
2166.10894351562
2239.35130474979
455.567061567612
453.75426500345
2283.32884453352
2274.30185151565
454.246763582528
411.035925537201
2150.89467328877
1606.56238971194
297.693439228494
217.302021993222
1146.73813442911
908.006665692087
168.827614943114
144.333033505451
843.068817286724
524.485701855833
83.0464938003856
76.6938835794196
448.893921587882
401.080119355767
74.5675861588021
69.4176877525224
353.887770936892
529.33288259542
101.293676419556
114.174649090626
620.654414999291
726.757206829626
125.553752909982
149.919723640049
765.942413070375
942.789255895076