/*--------------------------------*- C++ -*----------------------------------*\
| =========                 |                                                 |
| \\      /  F ield         | OpenFOAM: The Open Source CFD Toolbox           |
|  \\    /   O peration     | Version:  2312                                  |
|   \\  /    A nd           | Website:  www.openfoam.com                      |
|    \\/     M anipulation  |                                                 |
\*---------------------------------------------------------------------------*/
FoamFile
{
    version     2.0;
    format      ascii;
    arch        "LSB;label=32;scalar=64";
    class       volScalarField;
    location    "1700";
    object      p;
}
// * * * * * * * * * * * * * * * * * * * * * * * * * * * * * * * * * * * * * //

dimensions      [0 2 -2 0 0 0 0];

internalField   nonuniform List<scalar> 
162506
(
83410.8301607682
83411.4749654873
83411.1587679891
83404.9075936316
83399.1576444758
83381.8937507775
83401.6862690201
83401.3729463046
83379.9503122927
83456.3034581753
83459.6086874848
83431.0036782347
83423.5208261626
83417.5219770633
83418.3760407112
83419.1888687177
83419.3726502736
83416.4708764044
83418.0870047908
83420.9468665201
83429.2251152981
83427.5513214384
83416.0298274604
83430.9249939907
83443.8551650351
83457.9296871307
83462.0428214892
83414.6879020228
83414.5660413591
83415.7676515274
83415.4868663302
83414.5770010838
83414.2402224357
83413.5319856758
83413.609640635
83414.3548349302
83414.5589685647
83414.3226202368
83414.1760890452
83413.24822896
83413.2678825726
83412.1008380572
83412.0453587942
83410.7752586267
83411.6816636041
83410.6204678533
83409.2023601342
83407.0528959077
83395.3597169721
83403.085854732
83409.0090181035
83412.7158046426
83409.9631238791
83407.8400743303
83412.2402235672
83409.8554030221
83407.20834517
83395.8260063455
83405.0338045771
83407.5026082
83407.1858598354
83398.5819776507
83405.0163227131
83414.1022326436
83420.922778576
83433.6333435986
83414.4483618287
83408.8139487603
83421.7650888269
83414.0386274622
83411.1827970898
83412.8666388804
83414.1375014948
83416.775364971
83414.6829796143
83409.2846599168
83407.4994694295
83409.4490037381
83409.1666052885
83409.1405371807
83407.3847510233
83409.4259177902
83409.421143343
83411.2028609503
83415.9021839164
83405.771746538
83405.6953356083
83412.8111481373
83409.7775329267
83408.0441070015
83409.3438432873
83409.8379389138
83410.9131008047
83410.539997866
83412.249047667
83412.6624479159
83412.2703257608
83412.1511548834
83412.4950889975
83412.5996537879
83413.935278483
83413.8765294866
83414.5043803612
83414.6383775544
83414.851518138
83414.6465132048
83416.3362541468
83416.596375108
83415.4713460825
83415.5734429922
83413.1536506719
83413.1776444521
83413.6508752898
83413.6170214208
83413.5086196758
83414.0055047206
83413.5029487445
83412.9925007598
83414.7240573462
83415.1877954869
83413.1455598733
83412.6370203804
83410.9002548068
83411.9500852066
83412.6278965822
83411.9341704474
83411.8586438733
83409.6214314191
83410.4148910927
83412.2874113871
83411.2880052713
83409.7400798233
83413.8753541866
83409.8951311991
83405.1710665105
83405.0345470355
83406.4849785376
83408.7564771459
83407.5568063161
83406.4395204852
83409.7101639911
83409.5258163718
83408.813166104
83407.9960748879
83408.2282065576
83409.0270810803
83409.3021793549
83409.1316373231
83409.9188157695
83409.9046999139
83409.2762151247
83408.1933212181
83409.313995169
83409.4172874148
83406.7491740138
83408.1569666517
83409.1730922421
83402.9057785998
83405.2829264068
83408.9593870452
83408.2732012573
83407.7505227156
83409.4513759975
83409.5244654415
83410.8466253671
83410.688398259
83410.9790226454
83411.1331837196
83411.8338469022
83411.4795162233
83413.2823076958
83413.6460035393
83415.4846808913
83415.2032339309
83418.8939773797
83419.7344519204
83420.460676742
83420.6623208128
83417.8163228757
83419.1910745633
83412.7963339353
83412.4880369464
83412.7195949811
83411.3307544198
83412.3655038953
83413.2233303072
83415.2480822594
83414.6808238837
83415.4343610251
83415.9080120007
83419.476358905
83419.7634087924
83418.5937892308
83418.4484882334
83415.9424193126
83415.750435807
83420.5418973567
83420.5599245291
83413.9977805695
83413.3223615315
83411.5149364419
83412.8952215547
83409.5568990716
83407.8966291636
83409.4864723639
83412.0498130478
83414.6629962805
83413.6194712513
83416.8815256336
83418.7892049848
83428.4948588507
83427.9144142152
83428.1180907169
83428.7100643077
83432.7559167235
83432.576388118
83418.3045888382
83419.4900310873
83417.0413543475
83416.8640384988
83419.242516837
83415.9419670477
83416.3175594699
83430.7579993057
83400.929589825
83411.7919486116
83411.2375764699
83413.3648340064
83403.4643253476
83396.6973513593
83379.7918570787
83404.0380857293
83407.6345385607
83395.9543520361
83400.5414617902
83407.0814084128
83402.0057826497
83387.4195540111
83375.1191170822
83395.2141272322
83398.9165335795
83398.2718485899
83403.4369996995
83404.6421418117
83403.2753679899
83401.7214077086
83405.6891653287
83406.7136953506
83406.3272931279
83406.0704580811
83408.9074073061
83408.5369725161
83408.6475880584
83408.9501914046
83409.3759205798
83408.7844654811
83410.3936139531
83411.396572345
83410.7982860482
83410.2832350982
83409.6114234324
83409.1503950662
83409.862974232
83410.0143151523
83407.7737123482
83404.7550035937
83408.7588928175
83408.3037294019
83409.7064279257
83409.6184130373
83409.3072263056
83409.7103741004
83408.5076058775
83407.1283712459
83402.7647164187
83409.4056059754
83414.4772288321
83410.8579990965
83409.2092336471
83407.3099779135
83409.749187726
83410.5693428915
83410.6732018665
83408.4357617568
83410.2933552503
83410.6450993634
83412.9012858472
83415.7817761413
83424.3720057641
83411.344810053
83407.5497485389
83417.8575376239
83412.6782911889
83410.7975615883
83416.383390374
83415.8472343869
83422.791298746
83436.1621504671
83462.1792717397
83432.996977576
83425.3341523127
83457.6826107519
83381.1955904892
83403.4913803414
83403.9674805602
83407.3806192648
83402.3739462993
83384.1071755744
83459.1037440895
83458.2430955904
83431.1469217464
83422.3411737337
83417.8580408593
83429.0615387564
83444.3677974123
83432.295581446
83399.1251491447
83405.9006323909
83411.3219218787
83409.5004058105
83407.4602506075
83398.67275773
83410.6257958448
83413.119277007
83415.0886299478
83415.3445651186
83412.5892644742
83411.3009870067
83414.6572710113
83414.8643851849
83416.6449109971
83416.3673612619
83416.2192069931
83416.6725708318
83418.6824201371
83418.8466820174
83426.7191430034
83426.3342623815
83428.9923560753
83429.3532150082
83426.7726562043
83426.4276855534
83441.3489788625
83441.7095316374
83459.5572455261
83459.5132224592
83477.3378707006
83476.9449347164
83452.3990697071
83452.9908893907
83462.8096635629
83462.1924204496
83435.2524907291
83437.1041332656
83419.5294197452
83418.6900652972
83414.7009495633
83426.3029217593
83418.3249497112
83413.9885258801
83394.0602266853
83395.5219684356
83398.231263845
83394.1840407491
83395.3683205201
83407.4444420445
83440.5072742592
83419.3661106264
83423.808024314
83449.2524084615
83436.8186228849
83419.3963119636
83402.21836432
83390.4400999046
83434.8008896743
83407.3506094576
83394.6412985151
83395.1612045993
83382.7772249341
83387.1241905996
83396.0007996342
83393.0814993419
83393.2868541627
83395.4674180202
83402.4920909196
83401.4158685125
83400.8139599972
83401.1657417235
83405.6523009057
83405.6057406284
83405.5621048384
83405.5157065283
83405.904483304
83405.5913714365
83408.9386350752
83408.7817095533
83409.0755836882
83409.1406745719
83411.7868202616
83410.7826470166
83411.4192076472
83412.7016258804
83411.0124396706
83410.4357874691
83410.1427227447
83410.0230167418
83410.270992749
83410.6589734893
83410.5067016279
83410.1013867603
83410.6027501176
83410.6470236217
83410.6174200322
83410.7383220731
83411.1032452978
83410.8869517092
83410.6863538322
83410.897422233
83411.0973510879
83409.9618060631
83409.4196795329
83409.7453105058
83412.774439024
83413.1858379078
83411.432288174
83412.2459810652
83413.5969445608
83411.2746271258
83412.2885512457
83412.8713171725
83416.9844377713
83417.9860455737
83416.457501677
83420.4549687059
83399.0545719743
83410.7752203044
83417.3155979719
83413.2204402687
83419.4525351153
83421.2791073238
83423.9905521751
83422.039975586
83429.099912325
83430.5699320168
83429.4269013023
83429.125613819
83423.4079201727
83425.5458262805
83422.1397646378
83420.2751793427
83394.1487410542
83409.7148882634
83421.2330441611
83433.8265890337
83431.7410214273
83412.01655294
83417.9441768234
83436.2575575444
83443.7476946042
83449.6793774204
83435.2477287014
83438.2676968974
83444.6972506834
83441.2855688453
83445.2619792491
83446.8405516025
83464.3661377521
83463.7667787085
83485.5881403344
83486.0476742134
83504.0168938806
83503.7028126663
83508.1972201768
83508.5248786461
83498.0444680233
83497.625150587
83537.4499347477
83535.4031854887
83500.6207114262
83501.1873904732
83505.9312530678
83506.6627677974
83480.6489108747
83479.3496371939
83451.9195316381
83453.4119922635
83437.9961143487
83436.8132329671
83418.2490164103
83417.8091095954
83403.7234080144
83403.9810704026
83372.9868559665
83372.7942495024
83364.3409141259
83365.5828245321
83364.572921991
83363.7294589745
83362.8925982687
83365.9859161691
83364.1971568661
83362.1386167935
83359.2721899038
83357.670402756
83389.1128135215
83388.134829882
83380.2819189926
83375.6584371749
83405.7469169121
83403.497754418
83406.0491173946
83397.5107092648
83404.659550241
83387.8974993978
83366.5156926679
83370.0975097253
83354.5088892543
83392.1583306995
83366.1162444638
83356.2916148459
83425.8366970778
83420.7830619429
83365.3650705148
83370.7742315168
83393.7659061083
83393.4891204273
83369.6622128643
83362.4443641373
83407.7839727847
83380.7613166349
83351.3713128623
83359.4606130192
83383.0965733744
83374.6028257093
83367.4015723081
83368.676612867
83352.6577139802
83367.6749972086
83360.9369555394
83354.4062439293
83353.2299602545
83340.3726062021
83338.6730352073
83349.2645753148
83323.77760522
83330.600928946
83313.0732503158
83292.9144138015
83318.3892517806
83319.9597660642
83358.4750366038
83358.4116762619
83383.5063554751
83381.7641045418
83393.7893432985
83393.3756908933
83392.7506488754
83393.2826939119
83400.9023777445
83400.5937833215
83400.8561325298
83401.5332927667
83402.2483878864
83401.488126589
83405.9986833528
83406.3829848425
83406.9129016171
83406.8952474012
83410.020585278
83409.6296927628
83410.1679220174
83410.351435127
83411.3375965471
83410.8279623703
83411.7588175676
83411.0959408643
83409.9937988881
83410.9398395505
83409.227133571
83408.1820934188
83410.7063597241
83411.4736069875
83408.4410856502
83407.7913800002
83385.3717909835
83407.0787788792
83422.14803652
83407.0792997462
83401.0763878625
83427.0385355051
83454.124719871
83476.4995915161
83477.8830305427
83455.5977287904
83452.5533334731
83475.3828779014
83468.0661624058
83448.5840888154
83447.6800788104
83463.8570533024
83461.8102183591
83444.4598369573
83430.6016711518
83442.1560707245
83432.5905211726
83433.0930186322
83430.6601436274
83430.7252424318
83433.5374945208
83431.7618545284
83440.5899843916
83441.4209731588
83444.1746458197
83441.9591943869
83449.5513694705
83459.1856134057
83458.215715011
83454.7595578587
83451.0951260654
83449.9236210766
83454.8611693365
83456.3467988602
83483.1143703058
83480.9003633064
83515.6142119203
83515.2606932304
83545.9487539059
83548.1032000741
83556.7631470774
83553.9726534097
83611.2079611392
83612.5398547756
83597.1488902262
83596.1871307723
83572.2157911952
83572.9705554972
83544.8577718525
83544.942663053
83560.8150666084
83559.8273184239
83513.2180430649
83513.9974380991
83475.0951246261
83473.8018592851
83444.4749248811
83444.1874786355
83424.5675204945
83425.032753231
83408.8252168439
83408.8434448538
83391.4026988157
83391.4200832843
83370.8724477257
83370.5860495363
83344.551850317
83344.7017493919
83334.3233045703
83333.9311900136
83333.4109082818
83334.8164658112
83334.0961673228
83333.2765245852
83334.0153219042
83336.4018598566
83337.420865921
83335.821849451
83336.8589659535
83336.6238859859
83334.3702221556
83338.1981597932
83357.7498324132
83350.479641673
83363.4224956055
83368.1429000866
83378.1553945223
83372.0238604738
83363.9085763269
83352.9445665322
83366.1252399442
83379.4005229267
83380.011273107
83365.5233236219
83359.9820564039
83358.7345502591
83379.5937212027
83381.1884640372
83394.1444719572
83392.9031931566
83393.6947208291
83395.1346783113
83395.7543525747
83394.8637440581
83402.4574928552
83402.8477700601
83404.1704774644
83403.7871078998
83406.2710211353
83406.9250161134
83401.6880545276
83400.3277425127
83402.8951243971
83404.4648443129
83395.9381208107
83388.6725870641
83396.902243443
83405.4792800141
83423.6994298167
83446.2936809392
83418.7316047513
83424.6292552479
83444.4192767707
83457.7813868429
83421.5379312163
83417.0012330264
83423.5048550181
83433.3880781191
83416.3062987612
83417.38700543
83414.3697035443
83414.1987329736
83413.9240661062
83412.7745014392
83394.5416572379
83395.3749788119
83396.4889806329
83396.6950366524
83405.8286782087
83405.0052468378
83414.5233564169
83414.9204754352
83432.0175583764
83431.4504738455
83455.0450465251
83455.9401700419
83494.5350992084
83495.5561112548
83551.9874106886
83549.772882772
83610.1341303918
83610.4276247586
83670.5347130231
83671.9775708632
83709.7283909475
83706.7289679316
83725.704225617
83728.8258527204
83722.1855412415
83719.243370922
83685.0541584089
83687.6474061312
83638.2497173057
83637.8587702375
83571.4514704639
83569.8757847857
83510.3198379102
83512.2083315644
83460.507001998
83460.5020584639
83426.9032414745
83426.0381843796
83405.6094349249
83406.516783117
83381.7687472624
83381.0679659951
83347.3290223753
83347.4934669284
83310.7090164812
83311.6003570455
83315.9369472968
83315.7550654939
83290.5562867081
83290.1639725588
83293.6771732506
83294.4559534195
83303.1893042513
83307.0795140668
83306.3144333188
83302.4774155553
83276.3290337588
83282.1371603672
83284.8472490169
83278.3426135328
83282.8599973376
83288.9796986558
83310.6717031787
83306.4392444766
83310.3702453434
83314.3711337949
83319.1292775541
83314.2102708355
83317.0211683342
83326.8256671877
83325.4171460865
83316.5203207777
83338.1150928167
83338.2243127291
83334.1125124597
83336.8684757644
83334.2538897841
83330.1338226674
83320.953976882
83322.6358909498
83325.2263953924
83326.8075260958
83357.8751120812
83358.0900113
83380.0377184894
83379.5250852521
83384.3154390321
83387.4423079517
83389.6301750728
83382.4485298083
83380.5561432193
83381.7402494364
83382.8554701922
83384.7585924954
83383.51791544
83388.1294015939
83391.4326369473
83372.3190016103
83374.3928008254
83388.5570749869
83384.4464738228
83389.4338531858
83391.5627403278
83398.610855919
83393.1670640465
83399.4925196415
83399.3331376739
83404.1198705419
83407.1752284746
83378.9971267859
83383.807454363
83384.5846210164
83381.234039262
83381.4999490051
83383.9885362684
83399.6374639962
83397.8558766978
83376.4267898123
83372.0469506128
83373.4169532825
83374.1654498566
83374.4982831302
83374.0295006742
83381.3557421836
83381.124405239
83387.5232698263
83388.2276432929
83401.4438293941
83401.0639018414
83426.0505052022
83425.7720289096
83444.2530925406
83440.8279328321
83448.8702038375
83451.8627772489
83476.8042810171
83475.3848447208
83504.4889624049
83505.839964591
83540.0766831979
83539.1440194139
83584.2225406093
83585.4031490601
83629.4462440137
83628.7693588641
83670.7104273692
83672.0148312777
83709.2697509902
83708.3687622304
83738.9044226485
83740.1272611362
83756.8535356086
83756.7810919129
83769.7667144894
83769.8840814138
83776.6283824775
83776.1948711983
83770.8368060127
83771.2589959328
83755.4589279934
83754.8001166185
83732.0639218851
83732.4790354165
83704.7633894967
83703.5651466625
83664.6894045966
83665.398397832
83621.3945337311
83620.2553562706
83574.5963067263
83575.7209591104
83532.5796739285
83531.6284749618
83491.3262415637
83492.1575217944
83462.4637724753
83461.1325151531
83439.1253110811
83440.2475070802
83418.6973287116
83416.4029800107
83408.3002513962
83411.1486630106
83418.1610291147
83416.7184298201
83456.5941795828
83456.5389693301
83475.9056908315
83475.9831623055
83510.5041010507
83510.0965445927
83541.5129571777
83542.3684617424
83586.8450927247
83587.2160212316
83621.1298600937
83621.8102819283
83668.1838809583
83668.5519639657
83695.729645817
83695.348191866
83721.2569652626
83722.8479432719
83740.0641690783
83739.5786211768
83758.9283477152
83760.7327765798
83764.3852776087
83762.9210218301
83752.0478612766
83753.3312663503
83743.5462471583
83741.0570334141
83728.0879358087
83728.725398352
83707.5108101406
83706.7858039882
83666.3907726535
83665.8255465121
83635.1151421549
83635.0417648072
83590.7547324877
83589.7807138756
83556.2159399914
83556.6595516126
83517.4707871311
83517.687221631
83492.9575507904
83492.2915398559
83449.3590477519
83452.2612762981
83450.4983449293
83454.9247765703
83452.4812695873
83451.1498490979
83446.0610533617
83431.9783095452
83410.7752338684
83386.5101607109
83371.6922194132
83369.1409559724
83377.6922797385
83366.3594029989
83361.4841796363
83360.9433833489
83363.4271908234
83363.6170493685
83324.0572341466
83326.5440323538
83324.3374301098
83322.9917636
83333.6738171202
83328.1743518576
83369.3567582927
83363.5834465498
83367.8061409253
83372.3849500615
83373.6458376812
83369.6787394957
83374.5632255808
83379.9430459219
83340.744446052
83336.6500235699
83338.0223843286
83342.7128898809
83342.4177451278
83339.0230218901
83334.325525292
83336.6942223671
83354.8152233147
83350.3219313926
83347.3109328296
83349.056870722
83348.2636424799
83346.9517302213
83350.5660697213
83350.7052696064
83352.3230197844
83351.1130732549
83357.0536917402
83358.1312181799
83364.9474547605
83361.6957198237
83364.5952810172
83367.3841512963
83381.7653973596
83381.1069435061
83397.4603233575
83397.2426391443
83417.3751542124
83417.1153502775
83444.8933972519
83446.4334105033
83485.1771687316
83483.394806506
83537.7830251376
83540.9881280818
83598.1725794654
83594.0731404031
83647.8687554503
83652.9308289942
83695.5253174695
83690.044227759
83724.7785732036
83730.4848937422
83750.1592134278
83744.285676525
83757.843511349
83763.6200423265
83766.7619468328
83761.0978398528
83755.6197957496
83761.2143311147
83748.9255931631
83743.2496728729
83717.7133209475
83723.549221496
83690.5127357338
83684.9624227045
83638.0040819269
83642.8046849766
83588.0588709107
83584.1731268891
83525.1979258609
83527.6802235575
83475.1338308781
83473.5360430013
83431.9207478648
83432.5835872361
83405.9379688202
83405.3910316942
83387.5742967994
83387.6426985315
83375.4687288835
83375.375915488
83369.1528619188
83370.9407268287
83398.6702232969
83395.5817160726
83394.7722054201
83396.3282839138
83348.9643926586
83347.7877254416
83298.9565373155
83296.9764706804
83248.389040175
83252.0244003273
83277.0804552734
83275.6504724391
83248.7841572437
83249.8432045514
83265.4548012879
83266.1368725435
83252.3456454501
83250.5662804519
83262.7191826825
83264.3399335475
83249.6403299664
83247.8756555276
83260.4036174667
83265.9636189652
83269.5495084899
83262.9817902885
83267.6298996772
83274.7530120172
83278.594541949
83273.0070823209
83275.0149716316
83276.7762970537
83295.0231828893
83290.2476882998
83292.1796826049
83299.3791106636
83299.116145986
83294.1026938638
83294.552202914
83295.4137256151
83315.5288100747
83313.2918254461
83311.4279141209
83309.2479074875
83305.1772253211
83312.0956083949
83296.97696693
83287.721421677
83287.3861269812
83291.0595381835
83295.322874341
83298.9786794608
83296.072691699
83294.0005289234
83289.7736895649
83293.7559279396
83327.6331879273
83326.0878391122
83326.7246156405
83328.3419531393
83359.8530722484
83361.5236422901
83368.5215539298
83322.5823963498
83322.1701289242
83325.9882145019
83327.8959232586
83290.7366050285
83287.544154356
83284.0703556594
83287.5444689849
83278.4650516595
83276.1778476768
83281.9043827727
83276.8979034344
83314.680601588
83306.454854814
83307.5546583751
83311.4584678017
83334.0185227012
83334.6206335045
83335.183926688
83337.9555840644
83306.0813147002
83303.4246749185
83298.3895906672
83302.3973162195
83298.5081016974
83293.0987986871
83290.5792080276
83295.2671710415
83286.9619195396
83282.5665090995
83293.1282003202
83300.0021467963
83291.3266370154
83289.539071085
83287.1810325501
83287.5156321489
83281.0602653896
83281.31120106
83271.7777190273
83271.4840492714
83256.6494873338
83258.1336137769
83255.841137904
83255.4923799276
83242.8920496995
83244.102973319
83228.4402245645
83228.1873896015
83202.9976971171
83204.2277276321
83180.4646579453
83178.9140749982
83170.3623466959
83170.6612614557
83155.7800785569
83153.4899780484
83137.9300263477
83140.5111884466
83133.0094760908
83129.0245376149
83130.2387874073
83134.192685247
83137.1043175215
83132.1296639432
83135.1175960401
83140.37327856
83143.0644467466
83137.0928889183
83135.6130145386
83142.0094580523
83140.8501587996
83134.2228380882
83128.6188198933
83135.7507534601
83131.9533945698
83124.6653266431
83117.391643369
83124.891197765
83122.1916725144
83114.3704789234
83108.0802667195
83115.8273241949
83113.1443820732
83105.2563463969
83100.4403249959
83108.0925725855
83107.5899776716
83099.4905659057
83097.0489435459
83105.1610430944
83104.3017035772
83096.5632516422
83098.9009214013
83106.717994251
83107.9952162672
83099.9454447486
83104.2990239999
83112.2942954239
83113.7016972525
83106.0851761307
83112.0688822257
83119.9396138231
83122.7055474352
83115.199452197
83121.1833426303
83128.5355559353
83130.609080182
83123.5115253488
83127.8167450102
83134.4280468296
83134.6141218381
83128.3046448592
83128.3632972199
83134.2990748337
83130.7097906941
83125.4184052785
83122.1796017882
83127.1549679068
83123.926746482
83119.8947959989
83118.4198041595
83122.4934946569
83131.9541872116
83129.329334735
83146.9343953469
83149.1990995868
83166.2495683864
83166.0930087997
83176.5130033186
83178.0007846204
83207.0642639364
83206.3802231867
83225.612277332
83228.1131077129
83246.2269199807
83244.0320929061
83273.266693641
83274.7285402187
83308.8164893479
83308.0166491154
83340.1548101799
83339.8291241024
83342.1811154871
83341.8903594702
83304.0911747766
83304.6694107596
83265.7012659957
83264.1159761449
83254.055016505
83254.7044278581
83242.5460437342
83240.9893049417
83199.7420055424
83198.2347007027
83192.7460365415
83192.8130780414
83182.5846990948
83183.6151785378
83183.0219478912
83181.4037419613
83191.1485295869
83192.3139842835
83206.2371138237
83205.6068023884
83216.8610393162
83218.2917255284
83230.8694637203
83229.4559298357
83236.1052823317
83238.6666281401
83246.1116497847
83243.6922621077
83245.712537192
83249.109442372
83254.0097489428
83250.8279754275
83249.6082030567
83252.9188416049
83254.0409460093
83250.4720623749
83248.7865189694
83250.9863402277
83255.7332721188
83252.6240584662
83250.9203258959
83254.543193187
83251.0000863483
83248.1657423254
83247.0778561176
83249.6200178004
83255.0796135011
83251.514559355
83253.0778218744
83256.3602632084
83251.2118474671
83248.9994672218
83250.9491547834
83254.0477404259
83255.8616949774
83252.8240146764
83255.5399348806
83258.9422505462
83255.1812380778
83252.107286154
83253.8028220223
83256.8850280391
83255.4029948124
83251.8920888103
83251.4307950308
83253.9928557063
83247.3453908057
83244.4943211401
83238.9607852078
83240.6088881084
83228.4461851211
83226.8310136382
83216.1366795663
83216.8606067078
83203.8195754769
83202.4971517825
83193.0497259537
83194.1997907225
83192.8978827481
83192.3571626285
83200.5337074352
83200.389416983
83204.7156865342
83206.0812376079
83247.2531747722
83248.6621718745
83250.8433041703
83249.1467023587
83256.1681189147
83256.8280702121
83259.7782285577
83256.8700484826
83267.7988091223
83268.8947819842
83287.0230539202
83283.8240809867
83308.2391091092
83308.176531011
83329.1775999019
83326.7937234054
83349.5062419266
83349.2258127893
83365.1557597641
83362.7670906019
83377.5340317428
83378.2823012113
83387.3921094691
83384.7004586553
83390.5603255752
83392.4268403314
83398.0006189914
83395.3929956243
83405.0756888569
83407.7979247142
83408.9638276739
83405.8965112569
83402.1532406494
83405.6901218535
83406.7684876505
83403.346441292
83414.2629496696
83418.1096353199
83417.8345826568
83413.5767154909
83402.284201803
83406.1058154609
83405.6727833645
83401.9096151224
83409.7171407787
83414.0590620115
83412.0940761595
83408.7720389094
83398.9709857549
83401.4997594425
83398.9089193424
83395.8042702565
83393.0948698523
83395.7974448165
83390.8164147254
83389.1648803674
83377.1541033112
83379.9639387887
83368.6358277814
83367.9320932381
83352.9726349972
83355.2929183148
83338.8191957323
83339.1081744732
83316.8719622362
83319.0096549274
83297.1806632955
83297.2613169458
83271.0522014392
83274.4117287812
83257.2472341813
83255.6837349516
83246.405000282
83249.4488608721
83247.4687615362
83246.8096009664
83241.7182638913
83243.4365103011
83310.0549592196
83307.3789089765
83303.2114767992
83304.6107979179
83303.6194658724
83303.2425391869
83348.7103744757
83348.9213121282
83359.2098780859
83358.496850723
83377.9873716641
83379.1986853642
83416.7874934359
83416.0778574467
83333.7997086713
83337.2781868049
83387.084907451
83383.9437907679
83444.9914068309
83447.0554928289
83496.7408784913
83494.8029947074
83532.3390430169
83534.6503878772
83557.9125825507
83555.3592871367
83572.494041222
83575.6273950868
83580.9444881681
83578.3129027882
83581.5960717416
83584.3151305606
83583.9862747121
83581.1365860758
83572.8983389375
83575.3515366236
83564.8006910021
83562.0404278203
83538.0892333529
83540.4250460764
83507.0659536236
83505.0548400132
83456.3410362402
83458.4260452648
83400.2364056832
83397.2524641357
83345.608656171
83349.1768945359
83321.3465898848
83318.704523938
83314.4448013622
83315.5606742267
83308.9454860676
83308.7007437521
83254.3111656773
83255.4564280412
83267.3409038983
83267.0398306797
83276.1776981425
83277.0617307729
83283.3007790119
83283.1279939599
83305.1387409461
83304.7065175927
83312.7564420368
83313.7154054094
83310.5839838964
83310.7455873555
83309.0719880806
83309.1946294075
83349.6372035751
83348.624629964
83357.6006725769
83357.6415309089
83370.2761386145
83370.6696296628
83391.7684109985
83390.9731676852
83428.3518346191
83428.8547586544
83483.5089406132
83484.6262430086
83546.2161405964
83543.63508242
83598.7654260548
83602.1123788201
83643.5490306789
83639.7550243725
83671.6040071394
83675.5284555793
83692.6399331788
83688.6067208666
83700.7407170451
83704.6097009105
83706.7332587095
83702.9018412048
83697.9990754947
83701.825702487
83691.6796600738
83687.8139493903
83664.4877540862
83668.5239424844
83637.7447715965
83634.0096722887
83588.1742520061
83591.5999751069
83534.8487937983
83532.4849431365
83470.1699348298
83470.795550491
83477.4445577511
83485.4038545576
83495.8246597684
83511.9053974237
83522.8337974127
83516.2415730169
83503.048198116
83492.7416408444
83478.1318562338
83465.0665216392
83455.948935197
83447.8300405795
83445.4868121012
83443.5827634738
83446.7117155174
83448.4386557063
83455.5692309599
83463.9560560488
83472.4807365062
83478.8885115397
83477.6667878158
83470.5069194317
83447.5821971847
83407.3588085937
83377.5467419674
83356.9303732564
83270.902745763
83269.0652608445
83267.375109854
83324.3040642092
83313.6230273183
83321.9102957677
83275.4653699614
83270.8117175723
83287.6187286551
83292.4401663307
83273.0950654539
83270.8636631398
83271.5645763059
83273.0592898165
83261.0005194478
83265.8776539873
83256.69281811
83236.4710967104
83242.9054178244
83256.9043515967
83266.1619991486
83274.7213841191
83269.558823463
83266.6142642359
83281.7274141364
83280.8689488494
83279.0650571144
83277.0196678184
83269.4682668892
83272.7643983307
83264.540917725
83259.8145487597
83253.2054568804
83258.0040257986
83248.8479452462
83244.8738793159
83248.4096014834
83256.070369118
83247.2203638025
83244.0104619006
83241.164438377
83243.422763142
83233.0712489385
83231.9990892067
83221.7005366781
83221.8903986818
83200.8299545489
83201.7159230834
83187.3701756496
83188.2769553147
83169.2912489358
83170.2225845996
83153.0384075447
83153.5137302026
83128.1912083136
83127.9121915295
83100.3126611072
83101.2896070336
83089.2033385191
83088.7639329146
83084.9568102859
83084.0894554833
83086.5574239509
83088.1564906063
83124.0412903017
83122.7764627043
83228.0677712194
83229.1806744496
83370.8089038566
83373.8830524005
83436.5854427407
83432.9844816939
83383.2138150767
83383.2036317299
83252.3829988677
83251.6277247677
83148.9276361091
83150.157196194
83075.2685458317
83074.7407798557
83020.0885492965
83020.2468418392
82978.7808444048
82978.7380023293
82949.473539338
82949.4825803715
82925.6437879402
82925.7178756509
82910.6127583476
82910.4224188451
82897.7937930182
82897.9766815091
82891.2296365796
82891.0461222662
82886.9111507911
82887.151017447
82887.1585912312
82886.9203041214
82891.4757587927
82891.6884525746
82898.2403974427
82898.0269374755
82911.0252799035
82911.1939416893
82926.4374130967
82926.3002443557
82950.0375993969
82950.1284429779
82979.6193150375
82979.6584753459
83021.1445242575
83020.7956297472
83076.0097677262
83076.7663059991
83152.4591952527
83151.1017980336
83254.6679040335
83255.6654180729
83384.7056219206
83385.0119336217
83427.3682041214
83430.8242266331
83359.7505130537
83357.1477474565
83213.5751249784
83212.0423103907
83109.9624449443
83111.7602524829
83081.5466155147
83079.9135166827
83080.3589043469
83081.4408222608
83087.7530655334
83088.2034494403
83101.2515188817
83100.4381558065
83134.9077153916
83135.6285807988
83153.7234587673
83155.2134335906
83178.2179223036
83179.1876644742
83183.1789054217
83183.4432780949
83199.9849171238
83199.4650735505
83215.3998760645
83216.4234666778
83197.6604769014
83195.2143691277
83174.2255496708
83176.6655908571
83163.1044334664
83160.792446076
83141.8337048312
83141.8364840913
83108.6845921732
83108.6796985781