/*--------------------------------*- C++ -*----------------------------------*\
| =========                 |                                                 |
| \\      /  F ield         | OpenFOAM: The Open Source CFD Toolbox           |
|  \\    /   O peration     | Version:  2312                                  |
|   \\  /    A nd           | Website:  www.openfoam.com                      |
|    \\/     M anipulation  |                                                 |
\*---------------------------------------------------------------------------*/
FoamFile
{
    version     2.0;
    format      ascii;
    arch        "LSB;label=32;scalar=64";
    class       volScalarField;
    location    "900";
    object      omega;
}
// * * * * * * * * * * * * * * * * * * * * * * * * * * * * * * * * * * * * * //

dimensions      [0 0 -1 0 0 0 0];

internalField   nonuniform List<scalar> 
207032
(
3.36608738983309
8.27066124001768
28.5220114604148
25.8065449772213
7.03441562375475
6.83465904676109
25.4349593597036
24.1323404810868
26.6476797976716
4.51401478590133
5.11767133729531
2.58173167193811
2.17020371871645
2.29024753158367
2.69042989540931
5.5470504802661
25.4553450419213
28.3486956518029
4.68693395941319
4.87115748259215
30.1646060113812
27.1632047532606
6.09216956635799
2.90687799226192
2.41264287323825
2.59145251373452
3.15774942991435
6.82476749281859
29.1526164497251
31.9070345578459
5.38607924587485
8.56107133386391
37.0413787989672
34.5728161634391
9.77706620104331
10.0644091350349
35.8781908238085
31.6733406418581
8.76549165271823
9.62938333749581
35.4637405932186
34.2073952082261
10.0515909110009
9.64859174809463
30.4639662554286
25.1981837892904
8.08173261266298
5.3344506949425
19.2693520630581
15.3436582072891
2.89278935801163
1.518604172763
13.7386409128915
14.0712769558463
14.3850306866229
1.0760877242441
1.09084291903476
1.02279589299608
1.0035760991145
1.00224675954332
1.00113831304173
1.00461696253366
1.01644097382054
1.03082627597957
1.01220150525944
1.73826340212941
17.5347412174475
15.3108502065606
1.67928678263291
1.06975331686599
1.04183386034164
16.6687280565421
14.8780123169327
15.0809171325147
16.5571683399014
1.03051760683824
1.03791048240961
2.44197375592531
16.6743535080576
19.350126233524
2.38538119523852
1.16065435209218
1.20588718318604
1.21191941507405
1.16345639810578
2.93310231701021
3.54365687572348
3.54386397634723
2.94130723856333
2.09336588392382
2.34754602854613
1.2188254943796
1.16796902212061
1.06017830237745
1.08353469777596
1.31753189576001
1.18730729305162
1.27981837013879
1.40000826373092
1.44409752957445
1.37055231934176
1.48154316320402
1.58034963418683
1.91376364301013
1.63371741464991
3.17545842036517
4.02875561641713
5.44044086602958
4.81577063242588
11.0838501869007
47.6655556594432
45.6290508646343
12.0510626540222
12.6605011780784
45.3008356948366
40.9946284413617
10.9380882208506
12.0879203688142
43.6689882030048
50.3856100371976
13.0342966496396
13.6827545629895
50.6533827306033
56.7564983617807
14.6418681347627
14.6877470609144
62.2502301457415
82.6838994674493
22.4019754185835
18.8696568328554
70.3247926349585
58.3655305741007
14.873032513457
13.8041865930181
52.6307816841898
43.3354610890115
11.5379294442089
10.4219535326586
39.1427706619036
36.6859092096188
10.1164286538367
8.09214318733079
30.733923813454
28.806279494272
7.87208632042969
7.32127548790376
26.6743084270798
22.8752425255452
5.95890449175779
7.55191823029686
24.9937324332382
18.2468046201696
4.8581222380427
3.35676160029166
14.9408938807334
13.0727952828633
1.96761980549471
1.03819525160023
1.0105496803957
13.8826513813915
13.1540362195713
11.9403489955825
12.0348993858473
1.00269375705986
1.00926937984736
1.00318884685354
1.00106508378779
1.00255032501892
1.009075632762
1.01100345866765
1.32778066262108
1.40775319608896
2.08352159494011
12.6802551979744
12.5438237513249
1.75959931331567
1.00575788340999
1.00167195400626
11.8498111832162
11.8081078381124
13.207906708915
13.9064488796087
1.00444104023707
1.01019384309997
1.00066095646409
1.00040860856971
1.0001153176541
1.00023823959461
1.00081542370053
1.0002711826872
1.00054137952537
1.00303274645337
1.00117802859418
1.00027402006961
1.00023539581076
1.00037438299249
1.00000233145839
0.999985005107499
0.999951531105327
1.00007131955992
1.00031092446356
0.999978984742659
1.0005350091866
1.00276588889057
1.04113178470696
1.01984745704166
1.00251565001801
1.00524461782844
1.02127669294896
1.01453915866365
1.02595021118309
1.0354929746222
1.05548280016172
1.04606444665097
1.10935516219091
1.1444262956001
1.18460998216086
1.14814956860663
1.21222944402294
1.25342991780731
1.26529729489428
1.22258900110249
1.37266890067395
1.45941264857979
1.47994478295106
1.39057386380272
1.85798048602146
2.23116028233645
2.31697002252081
2.03577193064588
4.89635253758728
5.45545614908223
5.41803796601618
4.88583289272367
13.799632625058
13.4322862610086
14.0468108419933
15.5641488690912
14.5328088542806
13.1712171412391
18.855316599145
79.4372532301475
96.1665081885822
22.1066257013121
22.7082740979133
99.0592901925074
83.4191748908932
19.635573311901
15.1442413970157
68.1671355762365
65.3037590380342
14.7196009006811
6.54678051165904
4.01986779257565
3.28015705918609
3.75075726138094
3.583577696383
5.08944356424813
5.0520243652829
6.73748544531789
32.643232352466
32.1800886592537
6.70304255465455
6.66367485600739
32.3679005210416
33.0281047193675
6.82291798176886
6.77934553873411
32.3429670685578
31.936084001296
6.69476307050221
7.25062669472371
26.4657111769978
19.2185754501061
4.8409915387575
3.30583442145692
15.2447394041923
14.8132101722133
2.54369038728508
3.52961750135354
15.7617806585912
13.4309526637217
2.17776166640956
2.02056744013461
13.7560681809027
13.9444162093464
14.9598405165624
1.00388380830509
1.01157189063481
1.0008339617172
1.00025794324834
1.00009234450196
1.00021640393975
1.00017974885465
1.00009240207312
1.0000907460971
1.00022651578616
1.00034651684304
1.00008061018138
1.00000752058912
1.00030924139001
1.0000956351014
1.00003201043904
0.999942190449241
0.999941636068688
0.999937273979277
0.99991867787935
1.00008751321662
1.00040183485854
1.00360565073795
1.00134191764154
1.00060514057862
1.00095403472099
1.00865128166906
1.00494671148202
1.01971244513648
1.02873107905019
1.03844337232499
1.02900279071565
1.04791036429464
1.05464453559388
1.04676255043425
1.04091206057609
1.06534808326783
1.07181815157286
1.08223662504968
1.0715380582777
1.10406885147983
1.11617641890225
1.1375618389106
1.12282474073953
1.22874883458413
1.27039970519355
1.29885909266712
1.25696465552125
1.28376926450919
1.32643678378282
1.357742379004
1.31477078322115
1.52327104572523
1.63828689159993
1.66383415979621
1.55284735681682
1.88885180363423
2.20666551369135
2.20143462881739
1.92148092268459
2.1192662046392
2.34597378383265
5.47747610685689
4.99194698000386
4.9607108151343
5.43979126460615
5.8945241066641
5.56573240696118
14.940803446755
13.3725089752254
15.3082708481392
17.2740689240584
28.666102629032
22.3276546926101
93.6212943260086
113.256018372615
137.090755816915
105.479880624804
22.209507570611
31.2982423106638
18.0807582430528
18.420301548616
18.4337238423429
18.1366550944764
30.7271653219212
22.6665650545138
111.622660038078
143.454910531344
121.121847031117
27.6984442983586
22.0331475485443
106.351358846529
96.0484461452672
21.625204214837
22.0039121734026
97.0516578212573
94.0312240264245
20.5579832336316
20.6697410246637
91.2600601058347
87.0494471092778
20.6571797084045
17.5936344717598
84.4962045042431
77.1023276848128
16.5279895610572
18.2652980692789
65.3919773711579
54.6503111006283
16.6769018035933
11.15600737271
39.7626178180807
34.9480725668634
9.31605287724791
8.35188504498522
32.3668651727293
30.2549186136478
8.26473363055735
8.25398936880635
29.1212986968184
27.4230623709206
8.13460370221709
8.13010989318776
31.4657596428577
40.5448347897236
8.69523461554315
8.36956930822428
37.4932241585681
40.9016805638274
8.34620431780455
6.83189995768655
36.6659208640248
36.0411476069388
6.78338063587874
6.77699804578926
35.8800699795802
36.4695485798317
6.8118091156293
6.89217358240403
37.5486716780599
34.3163831421174
7.62761153752216
9.92785675472711
33.4947102710818
28.0937027195063
6.47327711660109
6.34156226705814
27.2414575251789
23.3247316132662
6.29361075960733
4.77235472382789
18.8791707653464
17.6166131124461
3.72841167341633
3.22606489191435
15.6485546578424
13.4120557141248
1.77133707262392
1.41440637246465
12.5006161074484
12.823621608596
13.6192668972865
1.00347067545723
1.00924261459072
1.00797561196351
1.00297279488144
13.6044794483277
12.8124970001387
12.4972939637948
1.42104307923708
2.02119957112937
13.7715741833372
13.9329135806208
14.914012419948
1.00339042844429
1.01192415260609
1.00125215653613
1.00031782883875
1.00022751782057
1.00053639590401
1.00029943501488
1.00010958908069
1.00008596973029
1.00033744995551
1.00060367011494
1.00009441320727
1.00006964453195
1.00212482579902
1.01790084711007
1.0017710589539
1.00074984856877
1.00018466212044
1.00429422431061
1.01464876785407
1.0365728563094
1.01301471304306
1.29171716309974
1.37532107864149
1.07450665514354
1.04165596966436
1.09480989985297
1.13572547367739
1.16531037920981
1.12099507811111
1.16233331381177
1.2081240753583
1.07014520943436
1.05896995239542
1.08873957277951
1.10054485405333
1.08155766728585
1.07378722851476
1.10680472612032
1.11634642110258
1.10617352199798
1.09847782383693
1.11579733226304
1.12629722649284
1.13681965008366
1.12258385120174
1.14770230430979
1.16247009087912
1.16256231056631
1.14763720257722
1.17561443377806
1.19155521093842
1.22615892070236
1.20894552278958
1.24709956219234
1.26755733722371
1.39297514342284
1.34973386554885
1.38336679625884
1.43198276808431
1.68868662334496
1.58413895175575
1.6194694145511
1.71888946459927
2.20547309716268
1.95881804014038
2.27201616599246
2.39667123092219
5.53670794312647
5.13533370655292
5.81828713480047
5.9309628929125
8.64889761946561
8.52683821632852
8.59854000263768
8.63548496041899
16.4811704589682
16.2415186022869
15.7148859798465
15.2264813204513
21.5702037069884
98.3059455853004
110.431679099608
26.4290865688375
26.1775879923487
112.888165739838
98.3538958542223
21.4248259489946
20.4155100954859
93.2617505571063
92.141143513352
20.7248948036615
20.4141252050895
94.7351675757164
94.147115695127
20.6705919753037
17.4699182317512
73.9831613836684
71.8129330210331
17.3336347791211
17.1211648855274
58.7256297533626
50.1916308354959
15.0257562983715
14.3030439496668
44.1339781584081
34.9120131803595
10.2541666117152
8.48515975211887
31.5333645618835
33.8495976225431
8.25333070068785
8.18300157408282
33.0288140745732
32.3938719795513
8.1575109564188
8.67118586144028
41.277865353088
40.9342417042718
8.3337086853139
8.3442628971734
41.0484796337082
41.9802831890811
8.38704966742806
8.463724807255
43.5358508970072
45.4927947746179
8.68439761351829
8.10014577186214
40.45027018705
40.4159389861941
9.792703997301
11.4737171080592
47.77468571486
50.5828001825509
11.568054932323
10.676784124845
39.6697725915464
29.8996855584335
7.20564036998335
6.11508406224345
24.610166725024
21.9957639145244
4.59400240461777
4.46614693991327
20.6590221945814
19.1420968569061
4.14997991861768
2.52965002842745
15.5314413638601
14.3688374598409
2.07560828578222
2.28246354098239
14.5219561826979
13.4059996422287
1.76204860818197
3.21133695086284
15.6657189402955
16.2725390196795
4.00747987109363
2.76518093787059
15.2036088856893
15.273252097624
3.30451910842597
2.07517773193438
12.7257496713227
11.9335937074727
11.9846806054425
1.00186593609563
1.00781096685275
1.00207881846461
1.00041483525584
1.00145587608717
1.00839559265096
1.03932159990405
13.193063136
13.8435919472351
1.01381758016293
1.10447281527136
14.3406538573425
14.124511478469
1.11384806773389
2.40040819105226
14.5973917510067
16.0448209162103
2.33212729881089
1.80920670162343
17.6605102558665
20.4609207218923
18.9785958861229
3.72596065065866
3.30441978939421
5.48066586695476
5.06282037714359
23.3117688994204
26.3736501559791
29.4749548330169
25.7990137714874
5.09879329289231
5.16670994066312
3.29683744987525
3.76700088951387
3.7592113633408
3.28896614846623
1.29615896852823
1.38423165412331
1.3948650856941
1.30265122882979
2.2923451063629
2.48258478668904
2.73177654600444
2.39338361510736
2.63065491875103
2.9633679923773
1.53094121675496
1.43084398335492
1.61574361590788
1.66345367772818
1.25967684885141
1.21717740844858
1.2970730111926
1.32805444196136
1.13508375752944
1.12189464712681
1.20858838436488
1.21689832249244
1.17157727921974
1.16029378335175
1.11520537346833
1.12631621142386
1.16098446189912
1.15097864930125
1.14365099305762
1.15444043577491
1.1891705147872
1.17781103492435
1.1782958770019
1.19388017005611
1.23218740512631
1.2156053411327
1.25813589739644
1.27807580173013
1.33326165148772
1.30235041418511
1.28520144162889
1.31659420238246
1.37087781694579
1.33030555237103
1.42123783769911
1.47617042812256
1.49332034917738
1.44055499916377
1.47076117186052
1.52319642088598
1.74253569689357
1.65280859046458
1.67112532852535
1.75638321835899
2.18833931008061
1.98332785652056
2.02797461922147
2.23486436096883
2.4180149926115
2.29260150084999
2.3616228743499
2.42258506211565
2.42279120219137
2.65193953201957
2.28600481059409
2.39809287490938
2.39725524845247
2.27125161346063
1.98148624933721
2.2070170025474
2.18443480820698
1.96293195612717
1.63940686740653
1.73038937268638
1.72378810640396
1.63253799378165
1.74134687909627
1.78410940025726
1.81118730671985
1.81157041746863
1.81710389498367
1.74596104244038
1.74105691545779
1.7381775455945
1.73285469099033
1.80524288362206
1.81578256262344
2.1012996378316
2.06016531641278
1.92826630949703
1.83716113985902
1.84918030626683
1.79537044195151
1.72299821602884
4.21291638408823
19.6867562902391
17.5848324938795
2.87618257814513
2.65318261065514
16.6705148271923
17.7739089075532
3.16566893869517
3.10175847111591
16.2364867914461
20.8885473297608
5.54745962188573
4.08525691973658
17.9327500353344
20.240477034418
5.34924965543203
3.98547578760873
19.4065920381107
19.1073578304545
4.72766922538824
4.9164718551822
18.5196900122537
20.3521065102812
5.42982397265316
8.31379811873394
26.0332266461728
27.3471610086402
8.93463266095426
7.58213186084324
27.5643531174692
29.835674823488
8.18649920988737
6.67986012398447
5.91710281558595
29.3780029140253
29.6871654889024
26.8565911909587
5.42629049906342
5.19956760931697
27.8431748859195
35.6875767824311
35.1727118934386
7.88675408357637
8.5882787521912
3.67391041403993
3.14113810919908
4.40825072112552
5.05615437016415
1.98746808853157
1.93315449443683
1.97199538349604
2.02621887545591
1.37607305423466
1.3424267163487
1.32110765352599
1.3549906070586
1.35991269707764
1.32509618801893
1.37351910672151
1.41065055261688
1.26240891435681
1.24338860256112
1.24667751381576
1.26043755712526
1.21099471091076
1.19517458644973
1.19134878447033
1.20851234439043
1.20037971100871
1.18864235879524
1.23555308037186
1.24825201493121
1.23195101211502
1.21934111276082
1.26791317411757
1.28384706055754
1.34595620439085
1.3174406131377
1.37464575377035
1.41445105710342
1.39253677175451
1.35231878199644
1.37554407768146
1.41405269102039
1.44703660897039
1.41053983602326
1.39266936713505
1.42642613417222
1.4204704523484
1.38440217122569
1.46825425507303
1.51832640072753
1.54875091372626
1.49801854585872
1.50430791868464
1.555704914348
1.76595728750987
1.67818795672552
1.70528296216709
1.78560031315375
2.19942474640417
2.00966082312481
2.07354799913045
2.26756649678659
2.45195500688599
2.32528092556333
2.54846546689439
2.54567040955256
3.93097089969902
4.13481455598017
4.17737068202199
3.95633569036965
5.90106720518421
5.8242813093513
5.8541026199722
5.90255898349242
8.56568727028466
8.58473877703462
8.64007639567463
8.58187563745431
14.8457695444932
15.5060764275228
15.4387407486202
14.7680604047265
21.5114527938587
101.505356650358
117.387309137712
26.1549579155819
26.2512751895059
123.414650677143
106.257433816564
21.704326277334
20.4006121110091
102.060564021891
96.8920156103236
20.3451794444128
20.6803907017055
104.005833448969
104.399530455941
20.7905583782066
20.7293226699242
98.7654433748155
79.8747622631334
19.7587094466769
20.6018904914872
71.3369646637331
63.2455939203002
17.3026210591066
10.5958741974795
7.5503503335058
6.20309030891539
5.76300367723215
13.1441414868184
43.3334251077065
36.2008862382689
9.47682116581614
8.85583622652651
44.5508996423076
42.8711760340531
8.66829656428934
8.65753720822261
41.7640058369056
7.60607020441761
5.38979880766539
5.57547730282341
2.52665348510468
2.64687672831012
4.16103641749199
5.10712451849614
9.63055940062723
40.3056390014953
42.4444512130235
11.02490676801
10.2800989074187
35.4942760036419
25.3377009740169
6.04291077930152
5.04892667529308
23.1097404921437
25.9289812787591
6.62000819341381
4.801596895507
20.8876873409818
18.6575695175313
3.43458631798657
6.36484080420035
26.2696629997849
24.7672292954064
6.00453381796726
9.07333190314498
32.7478076268311
42.4668583307101
9.55642586190531
9.5918979772335
38.5014381621046
33.4325339001581
6.75752211569416
6.60976684796712
31.1274119903587
26.039636535068
7.0745358832616
7.55707507547067
25.4633054769904
23.7326687749781
6.13888263043223
7.92262849909776
28.6101781840256
32.2169497253474
10.6040426670466
11.0713380399374
35.1013121713737
35.4542880405361
10.3167561077335
11.806631780881
44.9234177894802
43.2626923262208
44.1087252709111
9.2678964327953
10.1103865907912
12.4854817995704
12.5571489776235
56.6005024982469
51.061358185536
54.2124421979586
13.5930009913089
14.7623862358951
60.5147043745126
60.7836803042413
74.1748687107304
17.5489620796162
15.8473540992392
12.707462637937
12.5909897509923
11.6143751263098
12.2247326125559
5.09550508823747
4.4885345704152
4.49818694442898
5.08734503795059
2.1655720243822
2.0693074827844
2.12861170282011
2.21988912715659
2.07370767343721
2.02642920638934
1.38078538772937
1.41364375884065
1.46355841908943
1.43060187630735
1.4932612242224
1.52868521076759
1.47197617544198
1.43442737807974
1.29973661655291
1.32016408945589
1.3167496248039
1.30141143888859
1.24636762824438
1.26378331360054
1.25798906952817
1.23916223828072
1.29488605871303
1.31822541157743
1.30576977728526
1.28953243154692
1.34582245482373
1.37474528045846
1.45212076893748
1.41020466327729
1.44266244334492
1.48197469731251
1.52758818773662
1.48973209635522
1.45540318286345
1.4867498067721
1.48259950296156
1.44855911799028
1.42467990199119
1.45934918719745
1.501249003221
1.46673869690113
1.44794488506477
1.48422334332871
1.46316979531812
1.42876439645961
1.41803189880218
1.45278382670093
1.48511952349187
1.44934833550354
1.52522679306375
1.57744257663001
1.58790016745642
1.53510523249816
1.70079003947035
1.78909776503659
1.81625565919892
1.73590266270028
2.03020407115376
2.21367538073105
2.30308461398748
2.11201702311884
2.35985154733183
2.4909447495769
2.57933981884493
2.59399181670082
2.64120545586606
2.61761383144379
4.52584517408969
4.73784967744272
4.69333195747216
4.46021439223661
4.7518061032718
5.00059250501474
4.92373360459447
4.64610738922611
5.94024804658076
5.9058807281937
5.97391115775329
6.01073466085894
8.69948733745538
8.75076872463865
8.89833771856148
8.86632765865197
14.7827844329296
15.4507334745155
15.5199090015447
14.846650554093
21.9591970207709
111.872729739482
130.378486728298
26.4183761230786
26.6536827615633
22.2774314117449
118.317028791946
138.477704408009
147.68955474432
26.9386710259359
22.6605257866483
125.366047983635
121.436001659064
20.9005896563975
20.6704117618155
114.608071185953
108.100481561911
20.5062619081192
21.9656813438843
118.487391948414
117.854694058546
20.9482614766028
20.8451176167673
110.825433608313
107.586027380189
26.2178167149522
25.1093525035042
94.1824826216059
92.1562581633036
26.5649399625967
22.3474351545073
71.483602971652
65.9410105708897
20.6964844548416
17.507577141797
58.3820625466633
56.4693443925129
13.4950365832358
11.4887377500804
48.9817979375408
7.73071056368888
5.35782272001118
5.74446848344921
3.19100920468308
3.06413359891233
3.28867224062339
2.03432678832996
2.6676597958779
3.62102947505478
6.39496558379488
24.7252552098604
26.7268362760853
7.49190744948605
7.96065719154435
31.8112653320769
41.282157051699
11.692628974529
9.72381366381043
36.9608707560225
33.2207712053331
9.78040753684446
9.04624031776938
30.4644210138353
36.0811970492933
9.1084754907899
9.56336018173365
46.7344399730065
44.5085419796499
9.34166401948498
9.37817980653334
43.0993051945714
42.4702327393955
9.2861796606896
9.20799213653083
42.6346742279352
36.1200220538865
6.78632504040198
8.26686741134799
40.1718196376512
40.1309177642413
8.23088774940517
8.23722251639515
36.7837667425072
40.0310185240693
8.51309490836025
8.22881621316026
31.2174327403842
29.0415451948902
8.440824849881
9.49122425202118
33.3468920555292
41.4513379838079
13.9265367645139
14.6921316199947
46.0160236263362
54.4724079340181
13.8045509449259
15.9727010700195
60.4026722791313
66.5096066067478
16.2581380725792
16.1612420123256
67.7217841421828
61.7104521440662
14.6413600215123
15.6248009439433
16.9692003539006
81.7716171448609
63.9349837773582
61.7620430312634
78.5273961258496
16.7195629168229
15.5058417779645
11.096387909386
10.9862742809476
4.7675146231303
5.3586990692494
5.14606815937747
4.64244015518717
2.19937748302943
2.28824562093726
2.12233493067756
2.07830825832758
2.13923724107959
2.18274609463549
2.25794230074939
2.21177867953635
1.56990733691173
1.61045158701968
1.54650985628709
1.50523948006183
1.36826058513091
1.39386936722325
1.38798677103255
1.36769774829447
1.3075526549902
1.32938883630986
1.41266990492374
1.37706247141174
1.35612746142293
1.39222768560323
1.48514304745486
1.43360869431875
1.47707795753346
1.52736830059574
1.59532137575943
1.55333840249406
1.51399949100823
1.54335152104194
1.61669653128469
1.58583602732178
1.55113204910663
1.59399480622559
1.53547249211011
1.5047465301239
1.49319999912303
1.52981823182874
1.57916194724777
1.53948499746034
1.5066289635635
1.54294184485413
1.52123135586002
1.48305311301356
1.46137566926474
1.49804122561504
1.53058750819239
1.49126566945817
1.47847154205086
1.51651943380903
1.6040528446804
1.55034497789259
1.5637603158709
1.61982903056099
1.81151916405489
1.72174234911047
1.76429075491351
1.84695752163348
2.22949376403829
2.0489293238827
2.14822330450686
2.33979714904711
2.5343345053547
2.39638021840558
2.43409963353444
2.57798354272321
2.65554540993464
2.68349860920899
2.72912388243749
2.69587838504181
2.73599199567013
2.77236607284752
2.82090577986644
2.77933788742652
4.87240558862948
5.16058759301538
5.08008149162699
4.76466946207755
4.97910548085024
5.29262842201027
5.21137301108832
4.87357077150635
6.105576169647
6.04642940441314
6.10831142642429
6.21484581123485
9.06387487549743
9.07480223140218
9.27083432312976
9.29413864895743
14.9569857066337
15.642058290665
15.8130092538057
15.1182439804537
15.3288879842283
16.0255816689702
27.2744566105403
158.186432462687
133.063896767623
23.1052713919902
21.1737404626793
128.543946151596
145.014968626095
22.5073292288613
21.632951113522
141.321867234565
132.793779940958
21.2922275432379
21.0949800434577
125.004442370498
120.579919669356
25.2065685602755
25.6647412102579
113.829059203624
138.606731999904
30.7017752809535
31.729112790957
130.216020570399
132.071703035853
32.1410899518674
32.4339458505765
119.000417788289
133.116934701533
31.5412029158186
28.4164833673466
25.0333394695147
27.031263604717
109.661298352566
104.817958709073
26.9094802611291
26.3636346178337
97.4929145945365
94.2028679205862
24.8814584570118
24.4655700582657
97.2580179766091
101.720286698559
24.624611285591
17.927394309995
71.4820010954201
62.3279253225727
13.8246758312785
9.46997418826859
50.569639001425
47.8782416317553
9.02740499301027
8.35334235421782
43.4616023994755
51.69900457457
10.7747274450203
10.7209501341593
52.9113041693793
50.7312705285053
11.495323941077
11.7743964593114
52.6266551603181
55.1835667600819
11.9395978935109
11.0694536092436
47.3696260046614
56.0684448622322
16.3657166660708
13.9261781472357
48.2731917551754
39.0790532109767
11.6230751788235
8.5038937173823
32.0230320728151
29.0204266255879
7.81854461007152
7.02625097988475
27.6783515491344
29.2245710366585
7.84978663905149
8.19623068837682
34.2611076934061
46.4273881869393
11.9464194455715
18.1301242885324
66.3078279212481
54.280257941632
15.8659973581438
12.7241325580348
47.1386179258368
41.2206921394609
11.7231036166957
11.5146763880588
44.1652046607149
51.6605246316084
10.1407203538606
9.79132115648422
49.0310428296416
48.9216070888411
9.99829325290192
8.02397126241827
39.8170947987282
44.5504041467489
9.76963249065631
9.1211974567381
42.6499674668242
41.0677771539473
8.66191479200384
8.39206397705673
40.1714528822476
40.8964736899035
8.68031641269778
8.48142072300809
32.7581891136775
32.0186429429459
8.73255464349138
9.98985297279069
38.1421313618632
52.327496690641
14.079172146376
15.4376294909405
66.9661941389013
69.0923510557413
16.2383307718288
14.4744557921549
61.23857371113
61.6818475455651
14.4947608947535
15.5932952215934
16.7211123555856
77.8321238006789
61.1117977681636
61.6450136405005
78.8291827126051
17.0182596173517
15.9669604943938
11.441952329363
11.1653654662262
5.17994970353315
5.78119119809883
5.25083430025183
4.79265448520143
2.39666558160864
2.48546350903952
2.62783256093787
2.5184675312474
2.29279425100319
2.35956045725182
1.71678235734807
1.65545085163914
1.5836834734102
1.64224332175731
1.4907658834694
1.44752074921634
1.4452971453187
1.48173892227056
1.61634524273712
1.5552119945362
1.47317663235688
1.52818253391986
1.57508373819351
1.53672166386415
1.64408812145462
1.66725780447971
1.59652836997406
1.57536559251724
1.69285720993605
1.71571028381419
1.70811194803634
1.65439892853389
1.79491593012487
1.85774633519227
1.71546491959984
1.68234952082284
1.62662805150939
1.67306898681524
1.59242418847118
1.56090813062198
1.63122977974345
1.66374110930638
1.63451274603582
1.5917240998261
1.54737318881758
1.58576191226145
1.55810064792931
1.51668638785326
1.55121527731825
1.59680664801564
1.5620313531748
1.52024689023138
1.50586907910743
1.54640350169688
1.62860166117831
1.5737182091672
1.59130419087934
1.65080910022102
1.83365881782046
1.74235113633267
1.79205248063194
1.87770065159681
2.24668189629747
2.06830478405236
2.18475523052258
2.37669365880377
2.41284924023132
2.2207446979425
2.47334360631061
2.62415785313638
2.66928149641842
2.51265652109847
2.55278568475283
2.7136128013645
2.75503878694588
2.59167046920561
2.86801969190223
2.82173892973988
2.86674807196413
2.92025733184789
2.97011838029797
2.90939748784894
2.95365101318373
3.02382688256189
5.40742641592549
5.08075498252082
4.97243981308791
5.32418329749084
5.50244672227172
5.17213864036214
5.05543286728701
5.41509885565877
6.16070521097587
6.33179272503483
6.44712798397207
6.20329703153907
9.4751795782711
9.55075027763476
9.82193119103611
9.67183255157074
9.83891915349103
10.0884085313012
15.5807532119987
16.2698745589173
27.6719750362184
170.143803990893
141.573392118207
23.5955343241581
21.4924639703801
136.080912607717
155.163604522257
22.7799700344748
22.1699639475328
150.520567986793
149.612780727676
26.8531816242072
25.4850671927287
137.560211539868
128.398136517747
25.1389977726312
30.9000647180674
157.098248243327
143.115039427899
31.6755363843565
31.5682254245415
134.22717213144
102.881356924018
27.2750291163276
27.0580585892094
102.864746746181
96.1066877739117
26.0464322500989
26.2899299752729
104.33172645788
101.963381677637
24.9620143514651
24.5953690383247
107.503406071686
103.611920981881
24.4488698612924
22.2269220944411
99.3040213245926
99.2608116392928
22.3309917638856
18.6044435330231
74.5459591759444
66.3267661939337
14.5072236910376
10.0594274925163
53.2622972905575
47.1158557318156
9.0751557404159
8.65775605955345
44.9566453718516
6.22516924884796
9.53319858667477
9.5062054552629
11.1285457595133
55.3022973144355
58.8155705380512
12.1170338393074
17.4128944430629
68.3297168831201
63.7795481729153
15.9375007094802
25.3720167733839
88.3388333178791
78.15021300024
23.4739601202089
18.0514155825124
58.577502884173
45.8364013386169
14.3847417336229
10.0545171235425
35.4582252619631
30.5213931610645
7.91647701538953
7.25408533101264
29.1253211182047
30.4240813720362
7.97428836404018
8.41110459382265
35.6321440034544
48.7955462863329
12.0532997579604
18.7361937067548
71.88863941438
91.4242860789227
24.4674086195831
25.8265128079055
119.808405043182
114.076557256043
25.2041240520267
25.4792449310454
110.634144594786
101.299403788602
25.0596455342549
22.8843035350972
81.8892012470836
59.6735038997602
14.4123848703829
15.2722117783095
60.5990085485023
52.9325118431688
13.5813961102471
15.3306434283064
57.2597595583878
48.3284579803407
11.462646072124
11.8066848477708
48.883050304754
38.578028388861
13.4611697749888
14.5359782419962
37.2996762124894
44.4340950262753
17.2058492604373
22.0931917214708
64.6765253315106
84.2364042650982
22.1310123483853
24.8326603044131
91.121474324695
83.3943891730082
24.3580424407218
29.693056030787
33.5790692841461
133.307094857705
92.1618148122133
88.7914345356697
126.649669428809
29.9564804823662
26.8974329563424
18.0091257489392
17.9028412387561
13.5906305998109
13.1356534911109
8.71874578833181
8.47598691573994
7.82859740343759
8.30831672221607
6.98491102128506
6.55775761433351
5.33459181716962
5.67508170709757
3.92549445021922
3.79632107760637
3.663324292877
3.7713031178463
3.54216899543497
3.44338196709445
3.21716681781283
3.30453308455478
3.07894597546348
2.97515595577457
3.04242846414306
3.12436733986158
3.25453484851045
3.14428676871225
3.22870020735306
3.33191016381898
3.46667897023606
3.31431602423027
3.34488995239232
3.46719774507359
3.53478027354202
3.36061452415298
3.27567724122047
3.40619571634865
3.1183313354801
2.99229886277022
2.82601806614629
2.94166717312386
2.51897964887535
2.47038511771399
2.26178127190925
2.35308030713997
2.04610776905513
2.0021658194766
1.85768130880496
1.91197788566733
1.75794627261617
1.72366396860552
1.65685846347584
1.7022458778526