/*--------------------------------*- C++ -*----------------------------------*\
| =========                 |                                                 |
| \\      /  F ield         | OpenFOAM: The Open Source CFD Toolbox           |
|  \\    /   O peration     | Version:  2312                                  |
|   \\  /    A nd           | Website:  www.openfoam.com                      |
|    \\/     M anipulation  |                                                 |
\*---------------------------------------------------------------------------*/
FoamFile
{
    version     2.0;
    format      ascii;
    arch        "LSB;label=32;scalar=64";
    class       volScalarField;
    location    "900";
    object      p;
}
// * * * * * * * * * * * * * * * * * * * * * * * * * * * * * * * * * * * * * //

dimensions      [0 2 -2 0 0 0 0];

internalField   nonuniform List<scalar> 
207032
(
83523.7046958007
83537.3307229867
83558.9396550503
83536.332373087
83522.8732538547
83512.9724757119
83501.0200039943
83492.221669395
83496.1722245292
83507.6430806386
83507.7159888513
83504.0356324709
83504.3009145187
83512.5675621315
83512.1191707463
83520.3581577458
83521.8734790631
83520.8591393253
83521.1782590564
83531.4500483192
83539.7767331131
83544.2504395039
83531.4110126613
83522.9431598893
83523.1749588067
83530.3722160837
83529.696743787
83531.829951432
83537.4253112263
83536.7893746022
83532.2416074191
83533.1027794999
83534.5994006271
83533.3448976043
83531.9292784059
83530.1003220361
83536.5619967613
83545.6908700453
83533.1688852135
83533.1378635762
83546.2274973708
83530.9263999514
83528.4277438153
83533.0615261518
83548.0259290401
83490.0553890253
83502.598234455
83488.8035928723
83465.8900369872
83471.1634625945
83486.1668297997
83484.3245302118
83459.5420488372
83555.613235971
83554.456695594
83517.7580344601
83509.9982191286
83502.614264835
83502.6250793411
83503.1623631927
83502.5921949076
83501.6441170312
83503.2245887314
83497.3099814109
83497.0835598197
83491.659619591
83490.1875709588
83472.2687142677
83488.8468700697
83507.7719105302
83501.9177960871
83523.1113899729
83563.3907285624
83547.5193430593
83526.755623373
83510.079177585
83513.9591332104
83488.8360774815
83478.6834698584
83484.6136002479
83491.3071334043
83495.8794269973
83494.7254889072
83495.4889751353
83497.0668606396
83497.1432386409
83496.750984463
83498.0827408552
83497.9250579173
83499.8407533922
83500.0790264407
83498.4090773069
83498.9128529747
83502.0129132355
83502.2011860396
83508.9630786772
83507.9355068745
83516.3671281117
83515.9535865724
83524.578376531
83525.6109098094
83533.5714454168
83532.7767617872
83540.6957543457
83541.1704893641
83535.6775262393
83535.0780393397
83541.3231309506
83541.8269346871
83536.809795587
83535.9866228703
83533.7118365106
83536.6960146202
83535.4836737767
83533.3608672892
83523.434606172
83532.8367040883
83533.2059880984
83537.1772110741
83552.858673122
83536.3652784602
83537.3373378312
83547.1981719605
83544.4801419344
83539.6013642026
83539.3908442421
83541.5078176344
83538.7398506381
83538.433147685
83537.4247880022
83536.797429768
83536.0457275126
83535.7894463821
83532.2631993257
83530.9713060289
83529.6034952721
83528.4807684333
83527.1174447466
83528.4477892453
83529.1233398242
83526.9471045656
83524.3849855058
83531.4695971824
83515.2633774154
83519.4634669396
83518.3610728306
83508.0535133032
83548.7818303595
83513.0147666836
83505.999158074
83502.0081878812
83499.0726590343
83497.0087392703
83490.7067698452
83488.6970163341
83477.4724399236
83487.493610899
83499.5908379986
83507.0427276837
83524.5386185305
83503.6882237735
83494.8583516729
83510.3778006737
83498.944359876
83495.5354378089
83496.9396413991
83498.0745298275
83501.2396562093
83499.4477208128
83492.9200031014
83490.7382192428
83492.9264921176
83492.4506972736
83492.8976141928
83491.3420081734
83492.3483167686
83492.8823324572
83495.1466475102
83503.087060296
83490.3291743169
83488.7889111332
83498.340486969
83492.8189948293
83490.6191740245
83491.1632016837
83491.7977022456
83493.279042952
83492.9445438946
83495.2845343392
83495.4924458247
83497.6333062831
83497.7212501489
83498.2952740393
83498.2195433395
83498.6400021067
83498.5580850247
83496.2222291344
83496.4024494666
83496.5378279116
83496.3642375488
83496.5225777052
83496.6979546201
83496.8111175356
83496.6860621118
83496.717640766
83497.0789223335
83498.3061467718
83498.1216263522
83503.3013615576
83503.1587684032
83511.1368929688
83511.8734711201
83518.2006119837
83518.4412896534
83517.1848708518
83516.8699410823
83525.0642490794
83525.6380164707
83535.2570391715
83534.6597911004
83541.6993363355
83541.987304253
83549.7844856615
83549.2441559925
83554.2561144707
83554.8335790569
83549.9183978791
83549.1980683573
83552.5669243557
83553.7907624464
83549.6753081649
83548.6312750135
83543.2926303489
83543.1557367677
83541.3647646272
83541.9166231825
83541.5645442509
83541.0949138941
83543.9320753001
83543.8766936195
83538.8119183408
83535.4066766034
83538.8673941113
83539.9111488687
83542.6766987834
83541.2926651718
83538.3916052265
83541.5718553207
83538.9527939727
83538.7896597795
83530.9632136054
83537.2838503282
83542.1921508177
83539.0200225792
83530.9440087618
83518.3803380542
83504.6256943986
83489.284180575
83481.6062517034
83473.3891774653
83476.7550264656
83472.0812605979
83479.5509031721
83491.9620625028
83506.3599213467
83502.3533996937
83493.1453785483
83496.7793379331
83493.638108643
83505.5851142508
83503.0696767975
83497.3936438999
83484.48790312
83488.8777424449
83494.2787572692
83492.8170968377
83491.023540019
83491.429733006
83492.1829004801
83491.9802410116
83492.3976245709
83491.4066940983
83491.6252091337
83490.4103552146
83490.877506551
83484.0561660827
83491.6899683698
83489.5056059157
83487.7413793369
83489.8181480393
83490.2859383093
83489.1854837146
83489.1677260784
83491.1518094377
83491.1867169485
83493.2885086521
83493.3517579428
83495.4003336567
83495.1890095507
83493.1968839399
83493.3514215065
83494.4912045461
83494.7054116552
83494.5367269193
83494.3441399932
83493.2069382334
83493.2514757151
83492.9840436312
83492.8691925382
83491.460638295
83491.7524171845
83494.9867643631
83494.7720293358
83496.4120429915
83496.6411272931
83501.3398185993
83501.4969667743
83511.1296602827
83510.2015497164
83518.0819390575
83517.8508532799
83518.6701862107
83518.9084476689
83529.4266560757
83529.0753296191
83527.5447953877
83527.8987641638
83539.3799445097
83538.8417527466
83548.7326187666
83549.3781172613
83546.1721206186
83545.5331401465
83553.5332903209
83553.8772963649
83561.319586065
83561.074125793
83569.002949148
83569.1820713537
83562.6100405901
83562.0160550833
83567.4393298305
83567.8406464343
83560.5705273597
83559.901149901
83564.7517527594
83564.6584178878
83557.3747455187
83557.4782191093
83551.0165189343
83551.4682782088
83546.430698802
83545.8730922676
83548.3964282819
83548.7520118418
83545.8769675062
83545.5417479827
83546.8007404858
83546.8561072634
83544.3611431354
83543.8243262329
83541.649979468
83543.6824188404
83545.4871129029
83554.2663096882
83544.8060528318
83543.4738454362
83544.8365681897
83543.6711365881
83543.9145081724
83545.050788751
83540.4369325406
83538.2206369085
83529.3597641223
83537.7834405951
83542.7723765586
83543.0990723752
83542.1633961191
83542.468112361
83545.5808761931
83541.6043776407
83537.5814168469
83532.8095161571
83535.2195771119
83536.4254033134
83533.378878768
83531.3360322761
83533.5537749871
83537.0010411911
83540.0572063352
83540.5805056406
83530.4320268224
83540.1262959999
83534.1990529304
83530.7476518247
83531.1887623608
83529.819112609
83519.5821246031
83520.1257253771
83522.0054578927
83521.1258840621
83522.952335024
83526.6531734286
83519.6090633662
83516.6450946488
83520.9680025448
83526.8237873972
83514.2163449374
83517.0688625188
83515.9101267512
83521.5664716104
83523.7827315164
83515.0325966137
83514.8925900023
83529.6573129714
83515.2449649986
83509.3945496993
83504.519245859
83513.4432029607
83503.0519118238
83496.9815514856
83485.5051442113
83482.9297665113
83480.2694739131
83479.8811625917
83467.3092822612
83463.2505247004
83442.6669054299
83456.1235436377
83438.4816659593
83432.4065662921
83468.4043883402
83468.5193610085
83480.9357904004
83475.5908438417
83493.1208713728
83489.8020239196
83491.2735747072
83492.3239154242
83488.8751600864
83488.4301395664
83490.9128016047
83491.9167461652
83489.0665017787
83488.9004379166
83488.7659678673
83488.4684552119
83484.4275094033
83488.2638244424
83487.5031643855
83486.9438090262
83485.0369714209
83485.3678292846
83484.9745439894
83481.6610676596
83487.2238466518
83487.3736081697
83486.2318363149
83486.8555441687
83477.2524495357
83482.3530207032
83483.2302588843
83482.4318320143
83485.3223419211
83485.5231914756
83487.2420591414
83487.1848061369
83489.0020471454
83489.0538250538
83491.1739585553
83491.2028165735
83488.7176621796
83489.0635339049
83491.8817825448
83491.6784147812
83493.0322412032
83493.4015040128
83494.4222680816
83493.7123966931
83493.014114554
83494.4001971595
83488.9593985283
83489.2026920654
83488.325398508
83486.6476478331
83491.5312300684
83492.1077025834
83495.9755451384
83496.235730543
83506.2471535001
83505.700416362
83511.765411204
83511.418722821
83515.6802951726
83515.9163243246
83526.243798268
83525.7314251621
83528.3610912661
83528.790740211
83543.0391225557
83542.624417635
83542.4718406558
83543.0460658149
83556.7914360999
83556.2810735314
83553.4961767369
83554.0997347131
83564.408784933
83564.0554713038
83558.8388611084
83559.1459813455
83568.4719230341
83568.2721520233
83577.5917445617
83577.6796628576
83587.296428345
83587.3750879941
83576.7169275194
83576.7330675472
83584.4192539801
83584.6590340085
83574.1320891193
83573.8229116402
83579.7108562257
83580.0503577808
83569.3357817403
83568.8355695674
83560.9268663609
83561.2534986302
83553.9571045164
83553.9031503644
83555.9490201209
83556.0568580564
83549.2576594543
83549.5914263009
83549.0564772609
83549.2780630459
83545.8308240183
83545.9736363666
83547.0813097344
83546.4014075935
83544.5527626891
83545.9898028779
83545.2718799266
83545.2938186541
83544.6811640252
83543.9488361607
83542.9819844179
83543.4252265523
83540.9286849515
83541.4448791546
83546.4236470178
83543.190919445
83540.4917817502
83543.4831229099
83540.6069591089
83537.455201278
83531.2472582167
83533.6044782737
83523.2476297859
83529.6526701171
83523.6130193314
83520.0433673085
83515.0749053399
83514.68584291
83502.3514656381
83503.035960254
83509.7575352375
83508.9040336105
83512.3136025738
83512.9945334737
83504.7671312695
83503.8901077411
83509.1088540129
83511.6487660911
83518.3787418397
83514.3933351492
83505.1398527793
83505.2642954674
83503.0006451422
83500.2577773027
83492.947667189
83492.9789501713
83487.5986551013
83487.5909881892
83478.1206974597
83477.1253122621
83466.8182006534
83466.6271448403
83454.8156470107
83457.2542196399
83450.3080396841
83447.1691718814
83429.1873794159
83425.4138990737
83429.2502033112
83420.649717936
83407.4716111972
83408.4628572813
83384.7140853491
83385.421541137
83428.6472694426
83428.3620250191
83458.5575644377
83459.6774192815
83474.2471851754
83471.8325667645
83482.7276395877
83483.2805521742
83480.1168379583
83478.808854563
83485.4369674198
83485.8154252812
83483.6431709555
83483.1590583828
83487.9692639579
83487.3203830468
83486.1155680138
83487.2792478325
83483.7192159572
83484.4368526131
83483.3600858429
83480.5755679586
83479.764426186
83483.0103481465
83482.9536201727
83481.2522174875
83481.0919834143
83490.5235405299
83486.7261835967
83484.686223582
83487.6543909012
83488.6277294855
83490.8201687345
83489.0965552077
83487.2452913885
83488.0468841778
83502.5023818238
83492.9232320374
83504.1765223215
83533.2890363259
83538.6237112193
83497.8389676828
83473.8113764367
83447.5842192019
83460.992170521
83478.3960645785
83482.1835674258
83478.7437143227
83475.4807071613
83468.7545820432
83479.6994563234
83482.9846614971
83484.9034189074
83481.0723394662
83463.9597996724
83476.941112797
83476.7796824785
83461.3251488227
83485.9344210135
83486.8260361991
83488.3433855661
83487.1643438362
83485.8595352591
83487.7519305678
83488.701699638
83486.1068452948
83490.1091047605
83491.0400723804
83490.6070848504
83490.3704153197
83494.1741758004
83494.5059152349
83501.0758856104
83500.1844437499
83507.0412192461
83507.5559213386
83516.036541295
83515.0587731315
83519.9313062954
83520.6873201455
83532.066045616
83531.3088115358
83539.5372545398
83539.9154268438
83560.6767945624
83560.7874105234
83564.8276088243
83564.8035738521
83558.9439551187
83558.6220191935
83571.5783986498
83572.1409098342
83568.6468467978
83568.3430351028
83581.0300989769
83581.1352429799
83575.1352023456
83574.9239101224
83586.3601126221
83586.3687737386
83598.2295036472
83598.59727621
83611.2160496742
83610.4318763833
83597.0427344263
83597.4368291136
83606.7270739221
83606.4506356926
83591.6535202062
83591.8470646254
83592.4995250555
83591.9962121702
83593.8723464477
83593.9536653355
83587.2342761772
83587.274968127
83581.0809059617
83581.1457958008
83575.4080255747
83575.4001437579
83570.5567693251
83570.640948785
83566.6983674305
83566.6100896877
83562.8974573995
83562.9676194261
83559.8992749734
83559.6134419411
83560.0142307994
83560.6847295428
83567.0081650342
83566.4704314312
83569.3372645937
83569.9300052256
83575.7703666718
83575.2603386655
83579.7755651714
83580.3266684102
83587.8052926359
83587.5201283816
83587.548201389
83584.5545825948
83591.3816685969
83591.6839698738
83589.9225302407
83588.9762568501
83588.3643700136
83587.0693376613
83582.5112029574
83570.2812598298
83556.714978797
83532.4673330188
83522.3820363951
83494.4676879268
83463.5480210442
83449.6498405894
83428.2594675731
83422.0153204863
83413.906796345
83414.0511115271
83448.6111704292
83450.9583969044
83470.1106568977
83467.5237504951
83463.3809237027
83465.7857860433
83477.1268786249
83475.7357612556
83474.953868932
83475.5078612435
83481.8324858343
83481.7299975944
83481.2855643447
83480.8858970699
83481.3510792287
83476.4360021804
83475.548462742
83481.9357332072
83484.2741436015
83485.2462261175
83451.7917626959
83476.5518630832
83488.9545947334
83474.0667967577
83462.6691256028
83491.8643438472
83498.8270335506
83483.8661197294
83521.1191816571
83507.2708357583
83504.9325477017
83506.5671066325
83505.1566116698
83505.7679325053
83476.7051091109
83494.0725101369
83494.8618221273
83483.6379630479
83528.8760323408
83523.0982579944
83515.0342132734
83514.514117394
83508.6469879396
83509.3550405537
83513.3376575078
83512.4639487424
83523.3455759464
83523.9422356647
83533.5677011456
83533.3404734875
83539.1927722354
83539.403677428
83548.48206435
83548.084096352
83557.5044292179
83557.5703441848
83570.5974974176
83570.8158344956
83581.5651507979
83581.4701827503
83588.1512642615
83588.0890118929
83590.018948375
83590.2847046761
83590.5213822905
83590.0179699318
83585.7809424538
83586.0715333709
83602.4703710965
83602.5905331313
83595.2445479282
83595.0753459684
83609.8418649093
83610.4346078436
83626.064135929
83624.9578952931
83639.8061453174
83640.3443387009
83622.6083715463
83622.2283593671
83623.2359349612
83623.6131465686
83626.3989331623
83626.4007745253
83616.8996042373
83616.8473977825
83608.9399727795
83608.9305963723
83600.4578491856
83600.4534465274
83602.5888169937
83602.6044187453
83596.1412508092
83596.1803752328
83588.3759176029
83588.5278439693
83582.687302736
83582.6702213144
83576.2616196033
83576.4660448477
83571.8078165399
83571.7327174875
83567.1960345164
83567.3500755987
83563.8820241818
83563.9178647881
83561.7178276314
83561.2279199115
83560.1284390386
83560.5772621417
83554.9823782409
83554.8135716598
83554.9956118397
83554.9474142512
83550.1431632388
83550.4695087153
83551.0788150991
83550.7641540519
83546.4664856852
83547.2648989371
83546.0641433707
83545.2227492419
83541.7091254942
83540.4383624816
83542.0690403559
83543.1186635608
83541.8374413786
83540.8349885256
83539.30359043
83540.5563487654
83537.7280102467
83536.8922853772
83537.9720908967
83538.6714354831
83534.6962319492
83533.9140522439
83529.8990152782
83530.6450725201
83533.3411942305
83533.733213112
83524.9677620634
83526.713962994
83517.6967897432
83509.0308854602
83525.4853665972
83524.1524740621
83528.7713229457
83522.2125828923
83506.5651889314
83491.1893049254
83490.4884832808
83490.6791077311
83499.8839967733
83498.6855907053
83486.753328414
83486.9113245869
83494.9542927491
83494.4325167935
83499.5263091204
83499.9551129708
83499.5417114893
83496.1769291796
83489.2788241647
83485.6914727029
83457.0586125067
83439.0354675375
83393.1637762253
83390.8623019812
83402.4984366434
83356.6905757554
83353.9799243256
83331.9267874013
83328.0681826293
83324.4318821303
83329.1449914693
83360.9934025126
83356.0388342065
83338.6691077788
83342.9638048588
83400.6336988895
83401.8269082476
83440.5267907727
83441.9041566577
83433.0791072677
83431.1380468288
83466.7743050623
83465.1121471942
83470.5995737187
83470.0226825971
83487.2294897691
83475.1543365154
83476.0833782978
83477.2941710442
83487.7921142112
83479.999988938
83482.8809950225
83483.9222394568
83467.0464939928
83481.063871693
83487.4532243072
83481.9942992326
83526.5146885808
83496.577140529
83500.4749249322
83493.2485362626
83532.5692229545
83517.3251548209
83523.772638014
83550.3683400299
83544.5322622529
83520.1133079952
83512.6826660517
83524.7919567082
83516.2648088981
83516.0525003124
83512.2069292715
83511.763449238
83505.9414204474
83506.7423608383
83506.5225231647
83505.1613580112
83507.618128654
83504.2570481714
83500.1799221947
83501.8500159054
83503.491264137
83503.7019986408
83502.8215677413
83502.4717409266
83503.4350658055
83504.3043977472
83506.7742432402
83505.6863778422
83507.7824628304
83508.5767146544
83518.5579769446
83517.978942656
83525.6132515406
83526.1170188789
83528.9449456822
83528.7339481955
83538.5402529242
83538.692459286
83548.6994856325
83548.6966008269
83558.8900648961
83558.5883421097
83569.3265406801
83569.9456409229
83585.5061768405
83584.9129078697
83599.5681349518
83599.8945603505
83607.8760489888
83607.7710672905
83610.757041499
83610.7318521447
83609.3707083545
83609.4572753121
83628.6063514694
83629.8696013054
83620.6444415748
83619.6662932783
83637.6648784418
83639.4329959953
83656.6381873295
83655.6011872364
83660.0301965036
83660.5990574128
83665.2520597942
83665.2567040715
83654.3434631978
83654.2801090095
83645.3106523724
83645.2867673112
83634.5995421443
83634.4658506331
83637.2002626562
83637.0422636029
83629.1984078534
83629.4548728497
83618.9200529885
83618.8611889581
83611.5149086721
83611.6201919889
83612.0529390322
83611.915741924
83603.5354605218
83603.4856185763
83596.9190231187
83596.9302324349
83589.6444270108
83589.528365434
83583.6443108371
83583.6734357809
83577.5607189193
83577.3950082537
83572.4762501176
83572.5915959545
83567.9214397476
83567.7313913027
83563.8857538532
83563.7021264377
83563.9715611653
83564.0391687311
83561.2256264105
83560.8637614212
83560.1649351545
83560.3117423945
83561.0421982401
83560.7569906286
83559.9511672136
83560.0305070856
83555.1036920601
83555.1156388225
83554.0224267183
83554.0953644431
83549.6973241392
83550.0356036881
83548.5236116933
83548.2307265094
83543.8286958709
83544.6158882522
83543.0316898406
83542.2712955833
83539.287009102
83538.2639359724
83539.6006154193
83540.4852832818
83538.3650816307
83537.1460081728
83536.2962870527
83537.5731335151
83534.4975315463
83535.2756792363
83533.9938182311
83533.1610356771
83530.8617817716
83531.118809769
83534.4298544552
83534.2137550204
83536.2052495176
83536.6549226973
83532.9841447642
83533.0414274894
83531.4539173375
83530.6967385856
83530.9209941931
83530.4897454212
83525.2274262507
83525.6319028746
83525.3460972764
83524.1910215492
83518.1574248535
83520.5264365211
83506.5941678185
83495.536792299
83488.4971110586
83494.2448697271
83479.5540073586
83478.6556702761
83462.3659168351
83462.7437629924
83476.4725538087
83476.796005731
83474.1522644833
83467.7913266406
83453.7511029742
83445.8382328268
83440.4264430464
83411.1365732388
83390.1684496358
83358.4407097014
83308.5241670678
83318.4541183054
83326.1946004672
83321.5440071125
83312.2667332513
83301.8348866841
83303.323195026
83287.8822950694
83292.2384649303
83312.6919815135
83314.9506315621
83348.4071380017
83341.9162830598
83380.5261543692
83375.0444145357
83382.7961968846
83388.8996604996
83386.2924345238
83382.9820242445
83417.2126375868
83416.0421418769
83435.3034605909
83431.4565054282
83461.3914250826
83458.5160925336
83458.1743824069
83460.1886819269
83465.6402515387
83461.7239047812
83463.0949328378
83465.0012247815
83485.1283067572
83479.8696603631
83488.4629669367
83498.9945022592
83492.4087111813
83485.5349197037
83487.4296816384
83489.9367173858
83487.3518299135
83490.7983008223
83494.8113685779
83490.9876607804
83513.7208309805
83505.3705630463
83513.8346314607
83531.9354835279
83507.8890746622
83504.8394603396
83500.2870410403
83509.5774607984
83502.130464106
83497.7017473596
83490.2758356408
83488.1568198877
83495.0828791593
83494.3212539599
83497.5368621596
83498.4169813512
83497.9225277299
83497.3934141895
83489.8591781006
83490.9270258052
83493.2332418849
83492.0672069793
83499.0735230043
83500.0030395375
83508.1062863058
83507.6033702489
83518.3824071176
83518.9565333362
83531.7532431844
83531.6179910638
83544.7670242756
83544.7789031053
83551.2596377259
83551.3922477187
83557.4803595658
83557.0212392907
83580.3575694912
83581.4903168358
83601.4442709287
83599.9546998294
83618.0764886931
83619.7916916627
83629.5213080285
83627.8122994293
83631.1540968131
83632.6754453386
83655.3979309898
83652.5720560349
83648.6371604858
83650.9748850459
83670.4247265176
83668.8404104076
83674.9953387562
83675.7438051325
83681.2958232342
83681.2100648846
83672.0854823872
83672.003774481
83674.37382586
83673.5720291352
83667.9212929856
83668.7349231938
83656.6593631087
83656.2819973912
83648.4205411024
83648.8833586142
83648.1164949294
83647.4231811926
83636.8263842139
83637.2371518449
83629.3583151866
83628.9944991126
83619.3537383857
83619.5003786029
83617.6644830628
83617.4736026881
83610.3613409487
83610.5637830465
83602.8548450493
83602.8361204142
83596.3867146585
83596.4419564789
83589.7584689635
83589.7695269991
83583.8272127244
83583.8706686462
83578.0283558607
83578.0655496508
83572.8705251351
83572.8443337251
83567.9549909832
83568.1706207694
83568.138143376
83567.9671050604
83563.9263175195
83563.7890885183
83563.8231891674
83563.846916982
83563.4305768982
83563.3235693444
83563.0143709799
83563.0193821488
83560.3673044979
83560.0758037776
83558.93310158
83558.9878871586
83559.0000550792
83558.6994067146
83557.4052861682
83557.4512740896
83552.6453851373
83552.5034612204
83550.7072797675
83550.8492601598
83546.5627560485
83546.8634624548
83544.7077066435
83544.4476671905
83540.1518871528
83540.8598840687
83537.8884009594
83537.2359056772
83533.3286684555
83533.9410413878
83531.2095805272
83530.4107614259
83528.9653380136
83529.8813516005
83526.9303928843
83526.4732524121
83522.493278841
83522.3036160526
83518.9333992148
83519.2142619982
83523.149868351
83523.0794914384
83527.2649925732
83527.7365921613
83522.5484948661
83521.4719633707
83525.6017886366
83528.3911735667
83524.7897552799
83520.9069338556
83516.2036374155
83517.5472751608
83540.2247800678
83526.7313765604
83520.5338709772
83511.0457955433
83532.1579906304
83524.5282372514
83521.2117470722
83515.3440885296
83520.3774619712
83528.1767131447
83516.0451336133
83517.144395766
83509.6813176109
83518.5271273626
83506.3627070806
83500.3775714504
83486.006139669
83484.7342010576
83483.1758306552
83479.2711910517
83466.0005725677
83462.8431443777
83446.4914468678
83447.2213387659
83435.9278564759
83436.1290849512
83450.5608669286
83451.8329713428
83436.7238735504
83432.1499755662
83433.1582121734
83427.1322748493
83406.9758383785
83410.980028967
83406.1116502849
83400.430599323
83369.0455207793
83367.3435238256
83346.3036289637
83345.9654061723
83332.9623025391
83328.4794869017
83303.3443827842
83310.0458601486
83308.4329840454
83307.2286620339
83325.4237116174
83302.843346791
83295.252656393
83308.0629330004
83324.3985758204
83309.9527258117
83300.8777535461
83310.9900868089
83301.9150962092
83293.482797493
83288.7196777302
83300.1612596281
83291.5813358314
83281.6077197033
83273.1127347809
83279.2337065386
83291.7959437091
83286.0686255112
83312.741562933
83322.349382825
83320.8108250171
83329.9142885206
83326.9445759903
83317.17724897
83316.0312350732
83316.9255864288
83353.960941453
83354.1915774314
83347.5501676428
83347.8674197854
83341.3148463632
83341.0314474765
83334.4213096273
83334.4691534767
83380.4476274788
83379.510566494
83414.7804642125
83415.9216612022
83442.2902861313
83442.0022874119
83444.9658929095
83445.2373905879
83453.046354093
83453.5536637304
83459.8206777661
83459.8668338853
83468.2867786812
83469.1651436947
83474.164719303
83473.6179327594
83482.3682226453
83485.1988374376
83484.1334791251
83485.6380737281
83488.5778123552
83487.2815569004
83478.2549602377
83479.9450879764
83483.9649614917
83485.4648084999
83482.4579154105
83481.034614867
83468.0054237117
83469.7905975293
83473.367849385
83471.6168642226
83481.946490399
83483.0664840746
83496.7761898192
83496.0551027341
83513.883692151
83514.1536264064
83535.1757180726
83535.2831745076
83533.0032871598
83532.72670405
83560.213713789
83560.9700756827
83591.3405209225
83589.9388990073
83614.6132022309
83616.6175490333
83639.5813184877
83636.8931543515
83648.9879971118
83651.936418271
83672.2571278195
83670.0268736808
83674.2902001723
83676.3250976008
83685.8452645357
83684.9843246689
83689.4880119491
83689.8875636268
83685.7185014528
83685.4963804021
83684.4307173414
83685.9651965694
83683.9821505901
83682.6071735718
83676.3282003857
83678.2312329823
83671.4822383064
83670.0501839377
83665.4550078783
83666.6085764265
83655.9617429549
83655.1269245848
83649.3205845029
83650.098048683
83642.9649665675
83642.3162039455
83633.1923208166
83633.6057002319
83626.2023142093
83625.8532430972
83620.577692672
83620.9440323582
83613.8916977059
83613.6507719151
83607.4735761543
83607.6899935402
83601.0363068593
83600.9320670507
83595.0128763476
83595.1052274995
83589.0273146078
83589.0013883884
83583.3268880272
83583.3659725818
83577.9222466657
83577.9363131471
83572.825167031
83572.7963462852
83572.397690014
83572.451119793
83567.9132868511
83567.7178756316
83567.2791457285
83567.4188107412
83566.7739580585
83566.6072624941
83565.7624204911
83565.8568787236
83562.1735808147
83562.2599847105
83561.5287089558
83561.5203750316
83560.4493861993
83560.5406900759
83559.6012699582
83559.5887718742
83556.9250808184
83557.1998991141
83555.5563244269
83555.5188083423
83554.8835177991
83555.1699971495
83553.468482382
83553.3971255451
83548.5998073751
83548.8847653762
83546.1577707589
83545.7721825425
83541.7753920141
83541.5177290385
83537.5764128815
83537.7903741573
83532.4603621399
83532.356635395
83528.181457917
83528.7640250074
83525.9978827044
83525.1710041897
83523.5796344851
83524.645026713
83521.6494969603
83520.8140802096
83516.5708012926
83516.7047335124
83513.1644333506
83513.7462583533
83512.1455794586
83508.3212882482
83513.9046346
83514.5519035976
83517.8684240879
83517.5379445538
83511.2519208719
83511.3137036015
83505.9579299706
83506.1160550773
83509.067319924
83508.3399993468
83501.2829990063
83501.697705101
83508.5417648409
83509.2658591784
83503.801373241
83502.1714281592
83510.319969965
83515.3963615993
83503.5802331046
83499.7868629144
83493.0926876278
83498.8592258558
83489.8140936591
83486.6693914817
83478.4940100255
83489.1216751153
83466.331342749
83468.0688614223
83452.272938307
83455.5245079254
83431.0240178282
83429.1542708215
83414.6296794492
83416.2742301744
83399.3960838006
83396.6298513783
83420.6746091606
83423.1423078876
83415.6210527302
83402.4175557681
83372.8975984892
83379.2360313269
83380.9807624622
83356.8059837087
83354.6569504573
83330.8915869063
83334.1245647811
83324.0886887423
83323.4030098966
83306.1226142332
83302.7405080139
83307.571165508
83301.3502736285
83297.9599627883
83306.3403621869
83288.436496929
83284.807507916
83279.0454801756
83280.7159376421
83281.9554796006
83276.9903465734
83286.1276901096
83292.0049077791
83286.3545042031
83280.6276781603
83277.4338213725
83283.8369688936
83278.7658095957
83272.5088357399
83265.5758222943
83266.7604588385
83261.6645984667
83261.8753735299
83257.0312951237
83256.8904111102
83262.9658118014
83260.4269373677
83264.3299536407
83265.5919272946
83267.753945346
83259.9888158044
83255.6051502792
83252.1424018582
83286.9008657908
83283.4294410176
83270.1844977325
83272.5101655025
83253.3281840562
83248.8331260642
83228.533736458
83233.0674433369
83283.9244664497
83280.5682951922
83265.937576676
83268.8103280021
83250.7240164561
83245.1459188037
83221.2388687258
83231.0050757989
83210.7063117363
83199.5565018035
83181.2941374492
83189.0631798375
83216.7262962553
83210.7910290544
83207.8857646941
83209.8376684599
83207.5397890686
83206.3161159056
83206.5422051108
83207.3037666059
83208.0143052905
83207.3279949423
83279.1139689511
83280.6022744813
83281.437353294
83280.063092747
83283.3717839776
83283.7463795365
83308.8994055818
83309.8870511382
83315.7942466141
83315.2527845121
83325.1273350125
83325.2631563476
83338.3751259861
83338.1118463656
83355.2171183092
83355.5379925535
83376.9756793429
83376.0919633477
83399.0767768831
83400.2468613684
83425.6831056685
83424.1167619438
83447.4371442716
83449.147940531
83471.8500658522
83469.8578286111
83487.7459346352
83489.7635949176
83505.8474425814
83503.820562723
83515.3246893265
83517.1167075329
83528.0996619237
83526.6121465465
83534.5675460012
83535.5508409881
83546.4673446031
83546.0585362511
83559.102531571
83559.0820128657
83577.6333063147
83577.6499761168
83602.2756948264
83602.7332919576
83625.0183489605
83623.9898832864
83641.2568355056
83642.4128976089
83646.5469726019
83645.4566999481
83645.2712032116
83646.1478974134
83639.9942104774
83639.2615351678
83633.8957393249
83634.5138765302