/*--------------------------------*- C++ -*----------------------------------*\
| =========                 |                                                 |
| \\      /  F ield         | OpenFOAM: The Open Source CFD Toolbox           |
|  \\    /   O peration     | Version:  2312                                  |
|   \\  /    A nd           | Website:  www.openfoam.com                      |
|    \\/     M anipulation  |                                                 |
\*---------------------------------------------------------------------------*/
FoamFile
{
    version     2.0;
    format      ascii;
    arch        "LSB;label=32;scalar=64";
    class       volScalarField;
    location    "300";
    object      k;
}
// * * * * * * * * * * * * * * * * * * * * * * * * * * * * * * * * * * * * * //

dimensions      [0 2 -2 0 0 0 0];

internalField   nonuniform List<scalar> 
207032
(
0.015762199141919
0.0167963896284343
0.021987692494688
0.0209311954165341
0.0164765402835714
0.0163988789781002
0.0205333438958677
0.0198798719029409
0.0195110889728948
0.0156667764535919
0.016002036365239
0.0154895443656745
0.0153165081736572
0.015381263364782
0.0155491364073497
0.0161355595159549
0.0207217343126245
0.0205282436126769
0.015737267121146
0.0158305226882046
0.0218655557178753
0.0218090734647141
0.0162941985269545
0.0156322004522779
0.015443118095508
0.0155158519084183
0.0157282611811626
0.0165274513168015
0.0229437608570998
0.0230977446164288
0.0159827799366766
0.0168297193868114
0.0242159551878792
0.0240206852385762
0.0173598288906337
0.0173442566158552
0.024759780551636
0.0233480703273704
0.0169341494081051
0.0170337502566659
0.0230871957721973
0.0223089822852679
0.0170936961028139
0.0169635294243191
0.0207074579919715
0.0194004238286406
0.0165806127050639
0.0160014224591338
0.0184433591911407
0.0170955780955727
0.0154593940215649
0.0151585926055865
0.0163352346296803
0.0157529030323407
0.0153139956454036
0.0150257863822523
0.0150622580904158
0.015048761235607
0.0150142048569775
0.0150104750756358
0.0150068909744407
0.0150208832610907
0.0150425502585697
0.0150806136043862
0.0150462277923658
0.0151573822199764
0.0163774716808017
0.0164072632478801
0.0151733433099377
0.0150558126309749
0.0150424489721842
0.0156348911653123
0.0157167459451716
0.0153049614818693
0.015315178859561
0.0150205611954589
0.0150220948395987
0.0153518127206942
0.0171368355608347
0.0170256896869878
0.0152767944126584
0.0150892423803888
0.0151441944541479
0.015158316072026
0.0150977275214886
0.0153751763678411
0.0156016216467082
0.0156201852289846
0.0153896979877408
0.0152669979352285
0.0154094008217621
0.0151769398213456
0.0151111335017158
0.0150777127408558
0.0151146368264933
0.0151933345541324
0.0151284739466017
0.0151791852871363
0.015243194208597
0.0152885887438882
0.0152324345887593
0.0152893289096878
0.0153560957896345
0.0154810301162585
0.0153629773435204
0.0156935279081911
0.0159889195376694
0.0163553949230392
0.0161067338935596
0.0174192735328553
0.0256706992051412
0.0253545120059935
0.0178647205511227
0.0180160392629535
0.0259594525382097
0.0252801216011684
0.0175780758436291
0.0178959660666008
0.0261747503990189
0.0269924426630996
0.0181230952843073
0.0182592819926534
0.0265721013857652
0.0268064925846841
0.0184037394087359
0.0181351086037489
0.0273421626475169
0.0300890429006794
0.0195052740493601
0.0192232864363082
0.0290594052007187
0.0285376080625212
0.0185526788143936
0.0183671458784448
0.0303892118012653
0.0293172134401329
0.0176903272018948
0.017266762822641
0.0263673409461518
0.0242392435507931
0.0171400130153932
0.0167653016041344
0.0232771045373091
0.0217037239078237
0.0166908488633108
0.0165093222972011
0.0203858993106371
0.019128355931058
0.0161765440398184
0.0164380514945442
0.0202473522990059
0.0181784403178935
0.0158000777801872
0.0154920691898747
0.0171666939196642
0.0164045026504113
0.0152255800722202
0.0150576782587749
0.0150234808037789
0.0153197463441258
0.0158162728570496
0.0158129980933992
0.015285012656559
0.0150104185816314
0.0150322236264355
0.0150185860297306
0.0150071989588989
0.0150120243784754
0.0150339933124741
0.0150384824722384
0.015123135615375
0.0150924226117145
0.0151788894953995
0.0163975845829128
0.0164203136482645
0.0151141731771765
0.0150151657163414
0.0150033096358182
0.0152869459458509
0.0158169619257727
0.0159095695512252
0.0153427525183199
0.0150009977030448
0.0150115744760703
0.0150063191663994
0.0150037336900223
0.0150018127666569
0.0150037487798534
0.0150080406735386
0.0150030824979222
0.0150046956197393
0.0150159646828761
0.0150104820342463
0.015004049643095
0.0150026573237581
0.0150036652748362
0.0150007500710069
0.015000487776799
0.0150011207634922
0.0150024702336879
0.0150057488364238
0.0150025418796201
0.0150068283485967
0.015017968001881
0.0150589714054964
0.0150297500704075
0.0150142477058606
0.0150236126801174
0.0150650181287314
0.0150468410152242
0.015071014499889
0.0150885993394603
0.0151206975277616
0.0151057125512324
0.0151421650565875
0.0151758087672631
0.0152163898573446
0.0151816285685909
0.015226880612217
0.0152625734027221
0.0152782776936606
0.0152419524565021
0.0152987114759596
0.0153511849809612
0.0153705352160599
0.0153171871686006
0.0154559145616755
0.0155966396065864
0.0156365707057038
0.0155172925041618
0.0161647960166388
0.016387981032785
0.0163737307577757
0.0161635428537692
0.0179801600181407
0.0181434497797775
0.0182732958409262
0.0183037241445232
0.018127486079095
0.0181075095107598
0.0192375818261731
0.0306336870213768
0.031574692897852
0.0194724342087952
0.0196247986775496
0.0350560964474195
0.033274014733833
0.0194322900398706
0.0186562237390465
0.0320903676212911
0.0304314314932117
0.0185426986787153
0.0166990586348655
0.0160874583202129
0.0159322461161577
0.0158930002750177
0.015840012996363
0.0159643370404694
0.015973120851227
0.0162831475303108
0.0256618914015605
0.0242209932418771
0.0161991915418642
0.0161533662352861
0.0229098628251366
0.0216679549536272
0.0161315252107039
0.0160858294030389
0.0203387619266977
0.0203443587744582
0.0160672711548857
0.01615534293109
0.0196496272878426
0.0181937345024956
0.0156976007231812
0.0153847046587247
0.0171657424624952
0.0171908865011639
0.0152428797762197
0.0153714355005676
0.0174192960295659
0.0165754991508158
0.015158569111461
0.0151338866525048
0.0166614249408878
0.015960411125459
0.0153731549216531
0.0150032609014424
0.0150099697934652
0.0150066156232995
0.0150029712909224
0.0150016796450259
0.0150036953789242
0.0150037880364019
0.0150016686455237
0.015001623980074
0.0150041622953137
0.0150047434380663
0.0150015736791659
0.0150008335437987
0.0150044019976129
0.015002350178032
0.0150017073274324
0.0149996863661083
0.0149997898995334
0.0149995476399027
0.014998999374603
0.015001682860781
0.0150044194325251
0.0150186070049856
0.0150104062537344
0.0150074113185431
0.0150097974407149
0.0150311781859002
0.0150223593025432
0.0150569558364024
0.0150750470252267
0.015094813471169
0.0150810427678308
0.0151136107901591
0.0151236160286334
0.0151131217061163
0.0151020886365753
0.0151352106232945
0.0151452903296748
0.0151560872352249
0.0151407968189416
0.0151753190381789
0.015189340919029
0.0152078578210262
0.0151929625822558
0.0152438920790972
0.0152788094021398
0.0153001607488293
0.015265731774364
0.0152858616966343
0.0153200975839064
0.0153399182932268
0.0153060359267425
0.0153689230197309
0.0154298618458326
0.0154497641926076
0.0153908475377198
0.015480511437438
0.015607105797197
0.0156207475765905
0.015504857086185
0.0155567985978549
0.0156613050519573
0.0164281070140312
0.016230598723176
0.0162193758984601
0.0164122937252995
0.0165630521145867
0.0163923584245037
0.0182369577351613
0.0181930323559913
0.0186366707410666
0.0187421510331875
0.0208611612943382
0.0200693455907372
0.035684872630524
0.0379163343423595
0.0429956110151139
0.0392452565441247
0.0201309700835439
0.0214776644422445
0.0189347625543858
0.0193200519596799
0.0193264943191023
0.018962651297411
0.0214022404345197
0.0202315164261466
0.0419629368396872
0.0458101553248387
0.0440679148386172
0.0208668518450902
0.0201152120786415
0.0417137029559556
0.043307441527349
0.0201314419882448
0.0202121046843505
0.0436530890813818
0.0390623975293255
0.0202235637205613
0.0202309811588536
0.0398150528967167
0.0364036505549261
0.0202208642861857
0.0193904565879865
0.0360089419228889
0.0339117967710965
0.0190342237804064
0.0197348695758991
0.0340849358777171
0.033927133391984
0.0195504086005086
0.0179951350229146
0.0298319737151106
0.0272785361716419
0.0172363475748298
0.0168623571229721
0.0250494077156807
0.0244718440155778
0.0166559708871465
0.0166298209444203
0.0228753351165627
0.0214101588936353
0.0165943819986979
0.0165769028710064
0.0214821136703041
0.0223923575727571
0.0164454264184226
0.0163367078219671
0.0205618382385188
0.0220310849431186
0.016345076065251
0.0161346095070226
0.0215268867663518
0.0228205309505479
0.0161544814299567
0.0161795151031401
0.02433357195754
0.0260471347010695
0.0162371652728617
0.0163104278105303
0.0280206577716968
0.0270688448911196
0.0166810618659973
0.0178639109224508
0.0286578759038426
0.0252428766382095
0.0162157404401033
0.0161013541819345
0.0226498803264767
0.02020996370277
0.0160350478892915
0.0156185106759399
0.018556979393737
0.0186634665021473
0.0154507637361583
0.0153333394913453
0.0175281807966944
0.0173192982213398
0.0151288474262471
0.0150602260407608
0.0165549547679754
0.0159013159817105
0.0153407318455141
0.0150016347365527
0.0150071368381565
0.015011359046588
0.0150025781518705
0.0153398151471773
0.0158978763477187
0.0165496903076373
0.0150681050445248
0.0151451859445982
0.0166561671937752
0.0159570578951154
0.0153704870933097
0.0150047541108758
0.0150090474328712
0.0150087953390259
0.0150033812900136
0.0150028102540301
0.015006255538729
0.0150048645387543
0.0150018172015373
0.015001579874821
0.0150051562542816
0.0150066446163734
0.0150017023002347
0.0150014150183671
0.0150115656615391
0.0150434230534737
0.0150089125719528
0.0150050039506908
0.0150021609532323
0.015017983252776
0.0150368757943073
0.0150769400182857
0.0150454259079647
0.0151036154449318
0.0151684305705976
0.0150695483983625
0.0150395647009568
0.0150896176828007
0.0151295876973002
0.0151550411961278
0.015119816887797
0.0151599187726504
0.0151946315360928
0.0151318230610368
0.015118573787028
0.0151538877334179
0.0151665567767208
0.0151558262625287
0.0151468809748533
0.0151778648884756
0.0151868655266632
0.0151779583279673
0.0151691044253115
0.0151850426963215
0.0151947716316452
0.0152056086894361
0.0151912772241686
0.0152100145802206
0.0152239700188751
0.0152266995781387
0.0152123058948035
0.0152313086479382
0.0152456835380379
0.0152652298257224
0.0152507801029758
0.0152701263890853
0.0152850700300297
0.0153585794158322
0.0153254315213827
0.0153424315983844
0.0153746170267847
0.0154658099131685
0.0154105080058819
0.0154294136859608
0.0154818153597752
0.0156339239104966
0.0155276392626351
0.0156120641604014
0.0156892715758818
0.0164850527587652
0.0163108452959043
0.0165168146031345
0.0166321013088455
0.0172266668352551
0.0170549545647671
0.0171277324656474
0.0172846442675801
0.0189547808214361
0.0186450728295536
0.0186040209043198
0.0187520932027041
0.0200815570735518
0.0440015019432708
0.0468872312524848
0.020701525772106
0.0207169555757565
0.0510843689820022
0.0476872173759115
0.0201139676988051
0.0200420794867045
0.0490526215782776
0.045412062570636
0.0200508601530468
0.0202231112805234
0.0422100888755442
0.0437619383449481
0.0202741369254657
0.0198588487166013
0.039484692660876
0.0364901345422107
0.0197769617845192
0.0197426138739774
0.0356916965460346
0.033754728809334
0.0195233165763641
0.0192456343992489
0.0310804457046744
0.0283933466203899
0.0175935892898411
0.0167847390509223
0.0263131265141047
0.0265506069283315
0.016716654117069
0.0166516035074746
0.0247128794085388
0.0230710288081234
0.0166095007603787
0.0164742097250181
0.0242604782781192
0.0235888342230742
0.0163627410023539
0.0163978231741951
0.0254285975228784
0.0276027041069404
0.0164574994718274
0.0165367706507913
0.0301336383783517
0.0330516996013427
0.0166855102765112
0.0168593445878097
0.030521720961325
0.0290369297396129
0.0175857319549147
0.0182628528991187
0.030007993353384
0.0318633004831737
0.0183492861206872
0.0182209952948398
0.0305854054356142
0.0296791471044049
0.0172608674479641
0.01673369614074
0.0260612661938356
0.0237846741196535
0.0159075969494168
0.0157696428043542
0.0217793192382713
0.020077168257984
0.0155971591925887
0.0153857146505067
0.0193184492505317
0.0182307045303898
0.0152166557065688
0.015275629098301
0.0182184511751937
0.017312896172221
0.0151358636524649
0.0153549251378998
0.0175183776230795
0.0174084594575824
0.015445959995742
0.0152672414236199
0.017165049180611
0.0171483425060396
0.0153698783778321
0.0151671497985584
0.0163892687757069
0.0158087674531631
0.0152825180253553
0.0150062341341184
0.0150261601168894
0.0150135704011531
0.0150039540158178
0.0150085854911592
0.0150306954599137
0.0150513317354896
0.0158154705724212
0.0153167900342428
0.0150170740917525
0.0150270909539779
0.0153126238793789
0.0157543220851089
0.0150625453039059
0.0152643801982945
0.0163401236472018
0.016422335034754
0.0152513118338778
0.0151625953284429
0.0163711075785706
0.0170316926703439
0.0172044745743455
0.0155180414281012
0.0153561134790748
0.0156534909175094
0.0157846682575833
0.0184722771049138
0.0180769630813619
0.0186945113715826
0.019139155719617
0.0158669991909266
0.015650027566776
0.0153998325020978
0.0156102250427949
0.0155900007593305
0.0153857035202302
0.0151148501739318
0.0151847595186838
0.0152091374337525
0.0151316424874
0.0152781930550131
0.0154130337579784
0.015486893787156
0.0153282490291479
0.0154033176268384
0.0155646749147258
0.0152709683007588
0.0152113436137864
0.0152838483642614
0.0153385402846489
0.0152384428593481
0.0152035272920071
0.0152512819682245
0.0152816830096959
0.0151982435513781
0.0151855319530312
0.0152341508389184
0.0152439510659917
0.0152211328334344
0.0152131902440046
0.0151824554376053
0.0151926947558363
0.0152138711545627
0.0152057272905831
0.0152037457627692
0.0152131608038183
0.0152323101025887
0.0152229402774573
0.0152291400084832
0.0152430118138739
0.0152626449940603
0.0152487447709391
0.0152682177265212
0.0152826082258346
0.0153024947443652
0.0152861550796687
0.0152878343554365
0.0153046857521276
0.0153252433123246
0.0153061016384377
0.0153593723396581
0.0153910527700611
0.0153974414783509
0.0153694353505971
0.0153831236783006
0.015409000665763
0.0154908155619613
0.0154479784537062
0.0154570441048158
0.0155008592327896
0.0156363373663652
0.0155490521291178
0.0155633634421863
0.0156536963681501
0.0157046746693632
0.0156344078936063
0.0156527430129959
0.0157096009437549
0.0157125989936679
0.015727013322811
0.0156217590714814
0.0156931927720005
0.0156914852903645
0.0156179691097859
0.0155406699301112
0.0156380038138214
0.0156294902366079
0.0155345064992449
0.0154407069169271
0.0154878474770377
0.0154829863288603
0.0154366384464696
0.0154904992365695
0.0155239623567609
0.0155322738174398
0.0155345647013549
0.0155342363576224
0.0155081038197136
0.0155065198997988
0.0155023858131535
0.0155002959475787
0.0155148140322432
0.0155138749587885
0.0155375398468132
0.01544434706223
0.0154341891489304
0.0154311822520546
0.0154350469448228
0.0154455950810598
0.0154398753612207
0.0163872845759719
0.0238998140418504
0.0221397181408587
0.0156833288179585
0.0154977263963646
0.0206345174787033
0.0207471007600811
0.0156432738576766
0.015544342249468
0.0193269723998965
0.0200143612956086
0.0159659304566653
0.0155528806062103
0.0186347610728305
0.0185944682392958
0.0157186059997459
0.0155003048169213
0.0181357177498746
0.0181578434425983
0.0156528362294436
0.0157792370883155
0.0182242477216002
0.0186383660041719
0.0159817235878773
0.0166027900169889
0.0196438192014591
0.0203497448246921
0.0166705131976491
0.0164667321959971
0.020728597344083
0.0211440164266945
0.0166177381219629
0.0162576530134188
0.0158609403317887
0.0205253663631282
0.0209128520323981
0.0200664098042184
0.0159746562508868
0.0156913448301723
0.0195987082663392
0.0220659529114997
0.021725058527833
0.0162691526214316
0.0166415352321059
0.0157282813036194
0.0155229260601621
0.0157860261718223
0.0160249573551941
0.0154427959191661
0.015384875761497
0.0154138903982867
0.0154701611735084
0.0153065157260276
0.0152754884509267
0.0152673317547164
0.0152986841263049
0.0153063805729604
0.0152781984018012
0.0152999451896328
0.015328095344559
0.0152649261783119
0.0152517953517669
0.0152523888272279
0.0152631870174443
0.0152399070958087
0.0152307904914805
0.0152300769566265
0.0152394525896857
0.0152329340525596
0.015224876213391
0.0152451384403615
0.0152532153156419
0.0152522416370014
0.0152428477004305
0.0152628024627508
0.015272928341296
0.0152941568052432
0.0152813605361265
0.0153008072496487
0.0153166994766469
0.0153234582784365
0.0153047755105307
0.015314705671849
0.0153307009771987
0.0153423600482714
0.0153280637701433
0.0153291061743398
0.015343727129934
0.0153435634672451
0.0153287793724681
0.0153768525673347
0.015402042981032
0.0154112814760885
0.0153880301988293
0.0153973327849527
0.0154217027547972
0.0154999451697459
0.0154603496826258
0.0154737767185292
0.0155150013252114
0.0156452210931285
0.0155647501474185
0.0155851706474804
0.0156711524346848
0.0157219780639268
0.0156526724252257
0.0157112100352872
0.0157529344689334
0.0161210917784353
0.0161114246419004
0.0161417399977537
0.0161450191856583
0.0166774333315649
0.0165741876810275
0.0166320141369297
0.0167230717971733
0.0173291397184632
0.0171857492593776
0.0172579342866579
0.0173909081762065
0.0187324177112465
0.0186204529992629
0.0186683508391191
0.0187747079422456
0.0201900240287601
0.0520490135731504
0.0561941966147712
0.0207791415534074
0.0208699006756725
0.062474541523788
0.0573309956200962
0.0202912114128238
0.0201487908474456
0.0595506977022141
0.0537839302825386
0.0200812736274899
0.0203904675876927
0.0517475444043087
0.0538742131517143
0.0203913970043028
0.0203292421450206
0.0485445673230782
0.0430050422634344
0.020735525055977
0.0212025605388956
0.0399371607085093
0.0374571136136446
0.0199614725864855
0.0178689513626821
0.0171142893426694
0.0166428406220436
0.0164921956700713
0.0188224046383914
0.031126029616451
0.0286217411933089
0.0172801007634616
0.016691216385392
0.0315044522772269
0.028740097423361
0.0165585947690739
0.0165105962232685
0.0263242616347563
0.016330103278163
0.0159517091976297
0.015979978837502
0.015557810144202
0.0156349372271578
0.0161643291541164
0.0165878724554162
0.0179871681394536
0.0315204893097367
0.0340343519315688
0.018636092645343
0.0191135611780734
0.0340943698326402
0.0278732493918915
0.0173866580763468
0.0168164425013931
0.0268331199917132
0.0273960907026632
0.0174654722819029
0.0165754627992375
0.0240837988190338
0.0223574824808892
0.015860098911237
0.0163798841065323
0.0248054740229302
0.0222815489315183
0.0161509972280088
0.0165962066987563
0.021664103231068
0.0228862659432223
0.0166510726051676
0.0166010010109469
0.0214024470223555
0.0204758865138191
0.0160078341075298
0.0159841962117148
0.0202540112812505
0.0195976235411969
0.0160681565008206
0.0163969649029618
0.0203907249918963
0.0193598093711897
0.0161813387308013
0.0165903147741835
0.0206893103873072
0.0210648044463475
0.0171366797313937
0.0171629153362015
0.0217429973742598
0.0223146824739069
0.0170959520864508
0.0173736580284759
0.0237421873698054
0.0233044812443609
0.0228574903011511
0.0165350534517493
0.0169346230219412
0.0174035025651727
0.0170961447377306
0.0243434447217856
0.0246525774635255
0.0250833673983592
0.0177031157520608
0.01794460227527
0.0268324896926633
0.0263920756989204
0.0264453524552354
0.0178755609378087
0.0180500957144919
0.0174782274718581
0.0171391867969601
0.0169782663712439
0.0173773821270422
0.0160696024507144
0.0158481064244602
0.0158471050175558
0.0160664860072227
0.0154996942774235
0.0154326138030898
0.0154684113098256
0.0155344939315307
0.015501400832627
0.0154476418166942
0.015298051905974
0.0153283602534878
0.0153513086178061
0.0153212742117833
0.0153448088683289
0.0153749939033061
0.0153501394039364
0.0153224741567752
0.01527342508915
0.0152863577238941
0.0152843145606462
0.015273738474794
0.0152515601827747
0.0152605880924893
0.0152599373028828
0.0152506561743888
0.0152712695991443
0.0152814205292096
0.015274466651856
0.0152655707575285
0.0152847017856605
0.0152965790074965
0.0153202119310016
0.0153048713591151
0.0153156257341288
0.0153284369332754
0.0153411754709892
0.0153300868052532
0.0153258650214178
0.0153373022423737
0.0153366646462385
0.0153249872346823
0.0153282366642387
0.0153421846982904
0.0153551958085672
0.0153421836904055
0.0153420199187128
0.0153554924735038
0.0153564750023392
0.0153427344580505
0.0153423744240863
0.0153562938803054
0.0153691745478066
0.0153552092543733
0.0153981491325337
0.0154207642812079
0.0154342677245793
0.01541002522345
0.0154708391146577
0.0155093780426285
0.0155289657795201
0.0154880421871015
0.0155769640464534
0.0156549144194109
0.0156884459397838
0.0156027146884526
0.0156696012809583
0.0157402366904878
0.0157737010112097
0.0157320612805984
0.0157527035260555
0.0157946422758379
0.0163165241096396
0.0163080366770862
0.0163155284853729
0.0163164843890262
0.0164141433370922
0.0164192177194618
0.0164167114262157
0.0164018080768698
0.0167718561462233
0.0166933083063298
0.0167579752106411
0.0168247608572759
0.0174734079649399
0.017342165386086
0.0174347353969789
0.0175657610466854
0.0188378078790492
0.0187354357196091
0.0188165184235446
0.0189128563489137
0.0204080387539226
0.0635730728293242
0.0699222915984712
0.0209772850352332
0.021102210335003
0.0205414315084439
0.0710316948545896
0.078985254404158
0.0899505251491983
0.0212432424590191
0.0206909162710895
0.079874218470923
0.0836987606715659
0.0204469449361051
0.020328267830269
0.074341227934028
0.0663606484912427
0.0202299272433836
0.0209851777829241
0.0658735220715514
0.0659775329686933
0.020555023326618
0.0204605947871022
0.0595179539939547
0.054747625167667
0.0231463578733974
0.0227181196141399
0.0483075724255847
0.0433215940847253
0.023128050534398
0.0220377399817433
0.0387199411854594
0.0355087341830888
0.0213225187231417
0.0204258274266664
0.0350380708358958
0.0387904384303433
0.0188723883369902
0.0179155942796049
0.0346630985270071
0.0166129345407564
0.0162148099179353
0.0163420435371346
0.0158350868614961
0.0158064240768918
0.0158936858014126
0.0155146490810718
0.0158215260135962
0.0162839832954071
0.0175988294382539
0.0280179259381674
0.0287360310084492
0.0179957741078698
0.0180884361719985
0.0289969201416024
0.0329956518153752
0.0192184159001352
0.0182725784686253
0.030546968977506
0.029170904356501
0.0181101253418391
0.0177374257313731
0.0278230930568094
0.0268569056054019
0.0171329897686276
0.0169717056157729
0.0315309530007631
0.028852122348054
0.0168420953348821
0.016742957979318
0.0265987696329433
0.0245653195769974
0.0166667785004466
0.0166195805189308
0.0242841474575874
0.0231320962076645
0.0161122567153563
0.0163599823927209
0.0235175289617774
0.0220539393252775
0.0162953153253975
0.0162567697873484
0.0205175242957652
0.0224502704743976
0.0163683144737543
0.0165717473006701
0.0216677267937521
0.0216937564812737
0.0166397342837224
0.0169862019696668
0.0223444933594052
0.0232923369951642
0.0178220451649776
0.0179055988797609
0.0236714888603808
0.0245696935541053
0.0177363550913263
0.0180979854195499
0.0247407073128342
0.0268697635536133
0.0181945574487529
0.018219490241922
0.028616562912048
0.028148715090431
0.0179578160301527
0.0180488573858206
0.0178283385653558
0.0277779842170953
0.0274471845688167
0.0286717583197048
0.0294644326584772
0.0178515727942782
0.0180829498600353
0.0172907251976874
0.0170010342494871
0.0160037804772205
0.0162279792231139
0.0161795069844772
0.0159781501257601
0.0155040461874086
0.0155702339235314
0.0155295109724497
0.0154772251417133
0.0155044302326922
0.0155555784878568
0.0155783828311116
0.0155288281014258
0.0153680759452773
0.0153985375434839
0.0153714328478782
0.0153439808726859
0.0152951619762327
0.0153088136214773
0.0153064409466092
0.0152951262876919
0.0152724467200016
0.0152823175399973
0.0153051406209
0.0152922019059019
0.0152906559343824
0.0153037781219834
0.0153279091873017
0.0153112525078272
0.0153224387908056
0.0153364688811387
0.0153499803776266
0.0153377841306068
0.0153311152393521
0.0153420078088574
0.015357209465071
0.0153468985380319
0.0153452870920641
0.0153558698157177
0.0153514152793023
0.0153406878225586
0.0153394609928148
0.0153505020974837
0.0153646436508234
0.0153534481431129
0.0153555241928813
0.0153684947331744
0.0153687988075517
0.0153552708770819
0.0153556518380884
0.0153694405208074
0.0153825094339542
0.0153683024947579
0.0153677508992329
0.0153821240184798
0.0154304099641104
0.0154079800796164
0.0154220437939051
0.0154466120944785
0.0155189441533575
0.0154807435406441
0.0155012589073399
0.0155426014112143
0.0156650019122215
0.0155880621945143
0.0156187580454983
0.0157053511450803
0.0157586290460053
0.0156861856767965
0.015702799873544
0.0157769824322107
0.0158148734231639
0.0157721068260061
0.015791540912832
0.0158352953807074
0.0158551543959904
0.0158103071721827
0.0158294459023976
0.015875434150275
0.0164804357721288
0.0165022920267235
0.0164972204738373
0.0164655978865255
0.0165394991685102
0.0165766541735954
0.0165695093771527
0.0165237432353356
0.0168808757559739
0.0168232270200154
0.0168837864806447
0.0169386063263131
0.0176638418988772
0.0175337673561607
0.0176367033977753
0.0177674793169074
0.0189988587284176
0.0189099001737192
0.0190135260620443
0.0190958969851808
0.0192027011653825
0.0191250763125601
0.0214012389005882
0.103365924835427
0.0904304702276865
0.0208562226962773
0.0205818189705939
0.0946999552839307
0.100044881235148
0.0212678652709381
0.0209559661400375
0.0961116933836629
0.0837487124092742
0.0207780401226934
0.0206606307220073
0.0738796175642151
0.0706603038480023
0.0228098280328563
0.0229646453672434
0.0622666915689361
0.0633106686367753
0.024343087700329
0.024506148129258
0.0542249324653891
0.0490699980538309
0.0245675165058608
0.0245967998451341
0.0461464101868665
0.0552682175993846
0.0245214731803153
0.0234327827899214
0.0225927446769571
0.023210584450307
0.0429607696759851
0.0416288565994132
0.0231484561454965
0.0231078124543892
0.0416110662066959
0.0384941971596953
0.0223478300480749
0.0221443580191896
0.0374734210621435
0.0410608018730015
0.0222193196239256
0.0206210977030566
0.0406393487797361
0.0440537703889459
0.0190537583897587
0.017146925288902
0.0397846960602245
0.0362416261383821
0.0168948717599888
0.0170007148341363
0.0335438530168842
0.0336825554399878
0.0180174548709655
0.0180364668614445
0.0372665260106158
0.0345719154102058
0.0184045933370926
0.0185552795698979
0.0378998558951136
0.0416571499075164
0.0186978877069746
0.0187536514041107
0.0375493035228906
0.0419275239727106
0.0214828881131358
0.0208043670129854
0.0373780462113326
0.0364882468660267
0.01985473823271
0.0186927837682863
0.0329202841340533
0.0308757686661733
0.0182639869865114
0.0179754886445922
0.0296587280101154
0.0304351207209336
0.0182442325921222
0.0182513412873266
0.0310659641533656
0.0362033969760894
0.0193922181754348
0.0214439207897596
0.0417271053248611
0.0360019974832026
0.0205191670651097
0.0192019091196824
0.032667926587681
0.0298094483230166
0.0187617190792004
0.0182769092594905
0.0316214529165453
0.0377607905214155
0.0173246582633
0.0171519469234148
0.0343551856735641
0.0339482299869845
0.0171292778636316
0.0167576023315789
0.0302591436480241
0.0316013365875143
0.0170754952199542
0.0168301054585
0.0292675394453123
0.0271206334747956
0.0166239917103124
0.0164676014427875
0.0251899536117778
0.0261402415479137
0.0165629141897121
0.016783431050635
0.0247356484835902
0.0247242576338731
0.0168557095986747
0.0172446343207429
0.0260258197554435
0.0294223146142345
0.0179693220204219
0.0181250395276797
0.0294975880861277
0.0308343187612911
0.0182890275981604
0.0179768261402805
0.0297107515715952
0.0313104936509346
0.0180404103743044
0.0181618945342115
0.017923488196533
0.0312399671625034
0.0300241828179222
0.031504115876996
0.0332462764858522
0.0180503439836441
0.0182918515772413
0.0174715060214613
0.0171733525328385
0.0161609057311099
0.0163915884575466
0.0162675483399956
0.0160765702317187
0.0155739464722089
0.0156393191863929
0.0156684890357354
0.0156047453129838
0.0155493352218104
0.0155965836307069
0.015420919188257
0.0153894164805197
0.0153636741003219
0.0153917239810976
0.0153322122606654
0.0153157526991023
0.0153153623357324
0.0153296556932572
0.0153553356818126
0.0153372503065522
0.0153134614874324
0.0153301646547826
0.0153391643785237
0.0153252504086981
0.0153415892344816
0.0153534191090195
0.0153500974221184
0.0153382437100782
0.0153550513934371
0.015366269574533
0.0153660599878082
0.0153542422915941
0.0153709507515568
0.0153832504532812
0.015373208593774
0.0153626526055404
0.0153602662906286
0.015371116918177
0.0153659612938861
0.0153551264631216
0.0153695827675778
0.0153809057575249
0.0153790323128031
0.0153673071686502
0.0153686602648482
0.0153819983771855
0.0153822013604412
0.0153682231293097
0.015381502967173
0.015395870910544
0.0153958181650323
0.0153812160892068
0.0153805308774515
0.0153952852698668
0.0154404019544314
0.0154181317852585
0.0154341194356922
0.0154589764695555
0.0155288739481329
0.0154909406919149
0.0155145077917641
0.0155562454370445
0.01567561786765
0.0155995254804624
0.0156348448639884
0.0157221302499906
0.0157387098631468
0.0156508919570916
0.0157193838100609
0.0157952909069289
0.0158135626352824
0.0157359592531267
0.0157525771405905
0.0158318207193116
0.0158500603850271
0.0157692529958053
0.0158481786270258
0.0158953132135873
0.0159157297953902
0.0158674614074069
0.0158864178679456
0.0159357789465625
0.0159563790886208
0.0159059630096645
0.0166453795332427
0.0165946337912544
0.0165769415426687
0.0166357179976302
0.0167076776060115
0.0166451685172619
0.0166249165542236
0.0166953659468116
0.0169403321630765
0.0169966000324845
0.0170536018969853
0.0169927972755611
0.017740697520284
0.0178747421842933
0.0179829576156839
0.0178425443868112
0.0179375270790338
0.0180882739290418
0.0193166197793991