/*--------------------------------*- C++ -*----------------------------------*\
| =========                 |                                                 |
| \\      /  F ield         | OpenFOAM: The Open Source CFD Toolbox           |
|  \\    /   O peration     | Version:  2312                                  |
|   \\  /    A nd           | Website:  www.openfoam.com                      |
|    \\/     M anipulation  |                                                 |
\*---------------------------------------------------------------------------*/
FoamFile
{
    version     2.0;
    format      ascii;
    arch        "LSB;label=32;scalar=64";
    class       volScalarField;
    location    "300";
    object      p;
}
// * * * * * * * * * * * * * * * * * * * * * * * * * * * * * * * * * * * * * //

dimensions      [0 2 -2 0 0 0 0];

internalField   nonuniform List<scalar> 
207032
(
83524.3679474014
83538.0027900144
83559.612694993
83536.9902442565
83523.5309749058
83513.6196918039
83501.6672559045
83492.8597015188
83496.8112026273
83508.2785419572
83508.3521275968
83504.6648948385
83504.9298422088
83513.2092238001
83512.7610379653
83521.0096234297
83522.5271785919
83521.5122576922
83521.8305763766
83532.1188666158
83540.4482027686
83544.9221403924
83532.0795143012
83523.6034178508
83523.8354758261
83531.0541805804
83530.3796475189
83532.5209769525
83538.115918815
83537.4817974625
83532.9344952616
83533.8162851208
83535.3117597347
83534.0585278654
83532.6462114624
83530.818824391
83537.2802570772
83546.3788734478
83533.8595896488
83533.8272983915
83546.9181336744
83531.6157205892
83529.114917877
83533.7277693874
83548.6919033566
83490.7026999178
83503.2437683257
83489.4312919482
83466.5167618139
83471.77602692
83486.7784796015
83484.9301923568
83460.1488979501
83556.2160871053
83555.0592559517
83518.3593091834
83510.6004394357
83503.2136444499
83503.2239476634
83503.7610948969
83503.1910699632
83502.243796049
83503.824215507
83497.9128099835
83497.6857853556
83492.2633349005
83490.7919626714
83472.8733377751
83489.4514674597
83508.3742074988
83502.5198232158
83523.7140080032
83563.9934768779
83548.122093382
83527.3581353645
83510.6810039048
83514.5611503758
83489.4448557518
83479.2911896908
83485.2203026727
83491.9134188792
83496.4846650251
83495.3323078706
83496.1020515159
83497.6778367221
83497.7588632538
83497.3675698338
83498.7057146737
83498.5460133806
83500.4633418485
83500.7025007184
83499.0243834369
83499.5258347288
83502.622037917
83502.8102547919
83509.5882102806
83508.5596290732
83517.0011258757
83516.588374848
83525.2287880643
83526.2618787377
83534.2403903253
83533.4451964178
83541.3893716075
83541.8640468813
83536.3850324196
83535.7874617306
83542.0697852748
83542.5709202888
83537.5593135249
83536.7362130787
83534.4638090115
83537.4452758319
83536.2415637735
83534.1161988573
83524.1853846521
83533.5864765721
83533.9687947446
83537.9360038443
83553.6308944634
83537.1477476069
83538.112555955
83547.9667806105
83545.2501535628
83540.3769248271
83540.1592398201
83542.276977079
83539.5437874212
83539.2337427941
83538.2251472982
83537.6026110482
83536.8476631295
83536.589413281
83533.0817059856
83531.7874717674
83530.4170598609
83529.2986789813
83527.8804293851
83529.208510904
83529.8440537628
83527.6642333553
83525.1006751671
83532.1922583769
83515.9496224642
83520.1466964018
83519.0271942732
83508.7210755625
83549.4253556386
83513.6607016528
83506.6474036485
83502.656192191
83499.6976348023
83497.6334425151
83491.3189289966
83489.3097107087
83478.0780388029
83488.0987571802
83500.1927228697
83507.6440218685
83525.1409507815
83504.2910365959
83495.4588979041
83510.9783389234
83499.5433114032
83496.1353131295
83497.5378175686
83498.6718227298
83501.8386033493
83500.0474209685
83493.521335949
83491.3406360239
83493.5275811241
83493.0544772574
83493.5011496664
83491.9417063679
83492.9466127819
83493.4790598751
83495.7423707098
83503.6846853911
83490.9268152535
83489.3820033463
83498.9338358021
83493.4116419077
83491.2124998406
83491.7540048745
83492.3881451555
83493.8710831053
83493.537247404
83495.8789223453
83496.0864605139
83498.2276046074
83498.3163169573
83498.8905873873
83498.8144109195
83499.234734483
83499.1524404441
83496.809772358
83496.9901280412
83497.1256443041
83496.9520476487
83497.1109919814
83497.2863314842
83497.4067906367
83497.282646137
83497.3183765121
83497.6793158839
83498.8965187185
83498.7122001835
83503.8959200139
83503.7534115424
83511.743485582
83512.4795421995
83518.8106376862
83519.0510187962
83517.8106060468
83517.4954354477
83525.7030522783
83526.2769308102
83535.911581092
83535.3137519849
83542.3791914737
83542.6666047795
83550.4719103187
83549.9312470491
83554.9587554292
83555.5363144227
83550.6459509484
83549.9255582471
83553.3306503784
83554.5574616055
83550.4514778977
83549.407866048
83544.0778400981
83543.9389325173
83542.1470324972
83542.703182542
83542.3652828725
83541.8941852109
83544.7637214613
83544.7086088721
83539.6514987989
83536.249887376
83539.7086974202
83540.7477878176
83543.5437517084
83542.1571832143
83539.259296366
83542.4387605694
83539.8163924452
83539.6510333347
83531.8056026622
83538.1185476603
83543.0230563122
83539.8227204994
83531.734433798
83519.1565979819
83505.381092731
83490.0249906558
83482.3286608954
83474.0913691443
83477.4567279438
83472.7650312641
83480.2290898445
83492.6253364707
83507.0223272372
83503.005853704
83493.7931537468
83497.4263893679
83494.2901230271
83506.2365269011
83503.7223178969
83498.030309699
83485.1250739868
83489.4966197407
83494.8977689936
83493.426560713
83491.6328882688
83492.0348029352
83492.7880064445
83492.5784482095
83492.9973870693
83492.0010341479
83492.2194360305
83490.9999015112
83491.4668079265
83484.644280078
83492.278591138
83490.0937981852
83488.3295340921
83490.4063107588
83490.8736088542
83489.7692680504
83489.7521058816
83491.7374513599
83491.7721061718
83493.8749931324
83493.9384872913
83495.9878316558
83495.7761329153
83493.776119497
83493.9305629267
83495.0709240155
83495.2852918833
83495.1166311111
83494.9239005007
83493.7799045238
83493.8245846373
83493.5572137478
83493.4417941338
83492.0318278477
83492.3241396423
83495.5662840778
83495.3514296808
83496.9907387906
83497.2200665899
83501.9177379857
83502.07480237
83511.7125028627
83510.7846854865
83518.6631649167
83518.4319975205
83519.2673763053
83519.505905237
83530.0288175641
83529.6780856778
83528.1646336493
83528.5182712969
83540.0112047503
83539.472425852
83549.3829879483
83550.0291689372
83546.8335367567
83546.1947574346
83554.2070815792
83554.5510528271
83562.0081232547
83561.7622709331
83569.7065463623
83569.8856384018
83563.3265937943
83562.7328355832
83568.1755309786
83568.5774145065
83561.3239060111
83560.6527810927
83565.5277303469
83565.4355116792
83558.1661846686
83558.2680727089
83551.8247272461
83552.2773342712
83547.2545806925
83546.6965711143
83549.2480797723
83549.6039754842
83546.7408612497
83546.4037362659
83547.7056902224
83547.7595290104
83545.2597099053
83544.7277680996
83542.5538515922
83544.5811243752
83546.4124794951
83555.1931782036
83545.7312706656
83544.396148393
83545.7652711452
83544.6194798889
83544.8689397531
83545.9945710342
83541.3984512861
83539.1866863401
83530.3454667318
83538.7543043923
83543.7771860139
83544.1044310068
83543.1714763661
83543.4752642873
83546.6028394046
83542.6132871738
83538.5722447534
83533.8099316308
83536.2247217768
83537.4236678941
83534.366361029
83532.3428381699
83534.5508965831
83537.9877717927
83540.9939145536
83541.5138965493
83531.3298840071
83541.032899455
83535.0947122215
83531.6425344069
83532.1014114346
83530.7310092946
83520.4717872684
83521.0142285508
83522.8213917416
83521.9439828096
83523.7121469774
83527.4131185188
83520.3639785269
83517.3986179087
83521.6819077654
83527.5423058711
83514.9061769714
83517.7507821307
83516.5875373544
83522.2499768566
83524.4602797683
83515.7082464868
83515.5657753046
83530.3308738767
83515.9187031478
83510.0682875527
83505.1818424674
83514.1073694917
83503.728296248
83497.6579214253
83486.2046943488
83483.6293994435
83480.9954493962
83480.6082013145
83468.0746725945
83464.0154579657
83443.3986617836
83456.8512879929
83439.1739927849
83433.1012103786
83469.0532474174
83469.1750984798
83481.5707617861
83476.2256440591
83493.7356011628
83490.4173984003
83491.8784019813
83492.9296057392
83489.469436321
83489.0247238288
83491.5041877042
83492.5081170223
83489.6494213575
83489.4839585352
83489.3493213714
83489.0512434053
83485.0101628872
83488.8470106887
83488.0860106784
83487.526661915
83485.6143204867
83485.9455024136
83485.5522277092
83482.2385788869
83487.800104511
83487.9500395677
83486.8026822642
83487.4262720352
83477.8251075245
83482.9257037308
83483.8033560153
83483.0047066408
83485.8962662324
83486.0971325085
83487.8199150113
83487.7625396016
83489.5799345765
83489.6318796919
83491.7525668249
83491.7812780706
83489.2881109625
83489.6347506924
83492.4539763487
83492.2497787898
83493.5988711407
83493.9696325676
83494.9906237516
83494.2805009197
83493.5817187825
83494.9679268954
83489.5255270898
83489.7692633215
83488.8891164601
83487.2098664258
83492.0988865935
83492.6756670035
83496.5384100071
83496.7973071534
83506.8077801428
83506.2612177326
83512.3191153529
83511.972560182
83516.2483582205
83516.4844315834
83526.8082509975
83526.2952565792
83528.9422184747
83529.3722199202
83543.6214102093
83543.2046389328
83543.0812570369
83543.6539172885
83557.4171827989
83556.9053469508
83554.1316972035
83554.7365558108
83565.0558633763
83564.7021957242
83559.5000573593
83559.8076324146
83569.1458989442
83568.9458575353
83578.2791799284
83578.3671945477
83587.9998880255
83588.0790246826
83577.4381289222
83577.4538611398
83585.1603158762
83585.4009887482
83574.8889180605
83574.5805561541
83580.490096359
83580.829039757
83570.1364256261
83569.6362939914
83561.7455300867
83562.0709937268
83554.7913004895
83554.7388683084
83556.817768364
83556.9244515745
83550.1547000655
83550.4852880528
83550.0056048367
83550.2256029866
83546.8014479668
83546.9416698369
83548.100195449
83547.4208813882
83545.6096169474
83547.0617195538
83546.3354379044
83546.3490019766
83545.8076112368
83545.0942909693
83544.1297532873
83544.5562686935
83542.0614542155
83542.5814033975
83547.4965844349
83544.2527501801
83541.5494276135
83544.5419245598
83541.6556159345
83538.5007867051
83532.2945425338
83534.6511100968
83524.2524856149
83530.6325950205
83524.5896570742
83521.0237088365
83516.0634186602
83515.6789064282
83503.3290028005
83504.0052158869
83510.6365125684
83509.7800772914
83513.1195527817
83513.800617948
83505.5616737715
83504.6824177974
83509.853126423
83512.3963839726
83519.0896064769
83515.1012850661
83505.8399196205
83505.965806586
83503.6920572535
83500.9480773146
83493.6663550728
83493.7009473654
83488.3572183905
83488.3461718315
83478.9222024999
83477.9292691013
83467.686364949
83467.4900945278
83455.6313150684
83458.0717856606
83451.0843231087
83447.9243526478
83429.9693118781
83426.2089501376
83430.0027301884
83421.4075697381
83408.1608525895
83409.1670548579
83385.3440462579
83386.0517335007
83429.2731161776
83428.9813475693
83459.1738629688
83460.2956426958
83474.8567470567
83472.4385926902
83483.326053208
83483.8802218062
83480.697565889
83479.3887500963
83486.0187354543
83486.3980605667
83484.2130300815
83483.7288772221
83488.54355969
83487.8951814818
83486.6827049631
83487.8460261245
83484.2806540521
83484.9983212866
83483.9177683314
83481.133839899
83480.3189103699
83483.565853978
83483.5153643603
83481.8128784991
83481.6560379572
83491.0878718058
83487.2917255331
83485.2512824285
83488.2218178584
83489.1955739008
83491.3871022396
83489.6626118979
83487.8090915421
83488.6097913849
83503.0658711868
83493.487784579
83504.7417697551
83533.8531249483
83539.1875187351
83498.4032410847
83474.3724970654
83448.1449986196
83461.5549886927
83478.9593822562
83482.747615885
83479.3071943286
83476.0413294974
83469.3137735366
83480.2580933493
83483.5454909104
83485.4574224897
83481.6234512459
83464.5105543791
83477.4950003047
83477.3252223403
83461.8664695726
83486.4774499705
83487.3732382797
83488.8955612605
83487.7155079483
83486.4134238784
83488.3072149787
83489.2601059064
83486.6652065216
83490.6667348602
83491.5977941551
83491.158718665
83490.9204853716
83494.7173484936
83495.0497697197
83501.609565111
83500.7169359149
83507.5824982242
83508.0971758987
83516.5673735768
83515.5888936877
83520.4762902585
83521.2333657543
83532.6027499384
83531.8447445437
83540.0959285956
83540.4744600076
83561.2273243917
83561.3377486874
83565.409192638
83565.3854645458
83559.5479272586
83559.2261080529
83572.1936729463
83572.7564393465
83569.2786750585
83568.974085279
83581.6676242452
83581.7733906326
83575.7927177272
83575.5812357961
83587.0293276591
83587.0380738151
83598.9136860106
83599.2819316308
83611.9213893143
83611.1358117883
83597.7660936762
83598.1616424909
83607.4763598878
83607.1975506551
83592.4163574658
83592.611542161
83593.2870295997
83592.7818679727
83594.6743326511
83594.7553227137
83588.0422984176
83588.0835150875
83581.8931055122
83581.957714936
83576.2285353606
83576.2211091454
83571.3880918481
83571.4715451852
83567.5364696979
83567.4490014777
83563.741520964
83563.8103172162
83560.7502236575
83560.4663836892
83560.8699566972
83561.535012462
83567.8388133936
83567.3032513112
83570.160798713
83570.7520755319
83576.5775627223
83576.0686985365
83580.5738257197
83581.1248522691
83588.5998808569
83588.310784665
83588.3542654848
83585.3638692624
83592.2070830636
83592.5099113991
83590.7475167756
83589.7984229454
83589.1853046092
83587.888916392
83583.3299238746
83571.0985716097
83557.5266654409
83533.2578287782
83523.1073678863
83495.1696936688
83464.2316521717
83450.2908579761
83428.8726478604
83422.584559592
83414.4592167359
83414.6036439405
83449.1800984465
83451.529859888
83470.688751507
83468.0991464548
83463.9296206404
83466.333806275
83477.6886624856
83476.2976595122
83475.5013325213
83476.0540731835
83482.391633803
83482.2892664037
83481.8386478525
83481.4377134195
83481.8963747197
83476.9826682212
83476.090762552
83482.4756670984
83484.8145664342
83485.7866236827
83452.3339397953
83477.0945701675
83489.4837773799
83474.5946873689
83463.197977717
83492.3950411135
83499.3580251839
83484.3950280423
83521.6400770695
83507.7928848209
83505.4591024289
83507.0937505079
83505.6813698145
83506.292198612
83477.2403417888
83494.6111653335
83495.4004475282
83484.17473928
83529.3880809096
83523.6104511697
83515.5479171201
83515.0272604579
83509.1658720124
83509.8752914145
83513.8399636557
83512.9658438078
83523.8626568803
83524.4591543236
83534.0718064653
83533.8458753776
83539.7072467291
83539.9177148387
83549.0154573764
83548.6171413167
83558.0242452459
83558.0899056533
83571.1016993598
83571.3213601895
83582.0913964889
83581.9963032736
83588.7049752065
83588.6418561833
83590.5894591076
83590.855328487
83591.1200317536
83590.615021371
83586.3977854729
83586.6895213777
83603.094275282
83603.2136512332
83595.8915794728
83595.7229749707
83610.5022995082
83611.0954170463
83626.7440026954
83625.6363728977
83640.5089282021
83641.0490654854
83623.339421899
83622.957342468
83623.998318285
83624.3763600935
83627.1886994456
83627.1908067863
83617.6933354874
83617.6412984241
83609.7352450853
83609.726405517
83601.2563993444
83601.251550969
83603.4034378116
83603.4199367389
83596.9565439574
83596.9951104656
83589.1961104123
83589.3486706485
83583.5116731686
83583.4938301479
83577.0950199934
83577.2998449806
83572.6492069717
83572.5739427448
83568.0460410964
83568.2007683365
83564.7381278976
83564.7741869587
83562.5799406953
83562.0924201874
83561.0165865217
83561.4631819789
83555.8976106984
83555.7334275064
83555.9539385718
83555.9075928441
83551.1390331561
83551.4640315572
83552.1306532831
83551.8186590964
83547.5554108358
83548.3526290947
83547.250851376
83546.4087652306
83542.9288533605
83541.658957328
83543.2838821607
83544.332098773
83543.1588526526
83542.1615092657
83540.6386211973
83541.8850808302
83539.0609815413
83538.2340119205
83539.1993036523
83539.8942048947
83535.9298046376
83535.1530485382
83531.1235491371
83531.8742528589
83534.480131134
83534.8720817883
83526.0981657804
83527.85364226
83518.8228756197
83510.1524618821
83526.5312754498
83525.2101382864
83529.8182825889
83523.1922784492
83507.5233203954
83492.114343475
83491.4283094059
83491.6169752615
83500.7446867533
83499.5420489774
83487.5823915599
83487.7410347805
83495.7336978569
83495.2080085724
83500.2582872676
83500.6888602974
83500.2647964299
83496.8800609637
83489.9669909713
83486.3615891613
83457.7173689059
83439.7011960369
83393.8421034193
83391.5631032083
83403.2152711447
83357.37784671
83354.661143019
83332.5066287415
83328.6470569519
83324.9403015823
83329.6470919521
83361.4984982265
83356.5383625769
83339.0890424361
83343.3821195559
83401.1210335563
83402.3197196032
83441.0540650277
83442.4313730233
83433.5712102049
83431.6290166416
83467.3009104619
83465.6391890316
83471.1198525677
83470.5403153179
83487.7267458549
83475.6613609022
83476.5933623847
83477.7989431451
83488.3004342176
83480.510332462
83483.3909872063
83484.4313143811
83467.5695788306
83481.5876967123
83487.9729688864
83482.5130918403
83527.0379260344
83497.103150164
83500.9857035398
83493.7563273576
83533.0818087217
83517.8376035701
83524.2859269367
83550.8823110052
83545.0433226229
83520.623947335
83513.1777778526
83525.2895972294
83516.7631018782
83516.5518192997
83512.706654157
83512.2625218424
83506.4198328762
83507.2210502387
83507.0010465352
83505.6401410505
83508.0963486308
83504.7329323853
83500.6401514306
83502.3111584777
83503.9521450165
83504.1630862727
83503.2817186156
83502.9322257267
83503.894322478
83504.7634350132
83507.2478746688
83506.1588989037
83508.2562893266
83509.0501499105
83519.0408309962
83518.4625739448
83526.1087153008
83526.6110956031
83529.4187954889
83529.2090766826
83539.0272185843
83539.1783576672
83549.2003589942
83549.198103712
83559.3762814914
83559.0735243309
83569.7947248286
83570.4144825783
83585.996577645
83585.4022844397
83600.0840985278
83600.4111251727
83608.4212086395
83608.3161340534
83611.3301309038
83611.3050840232
83609.9692531527
83610.0559450782
83629.2085444272
83630.4723871681
83621.2778747462
83620.2995133609
83638.3112447515
83640.0803930083
83657.3067178983
83656.2672978073
83660.7341042814
83661.3044873577
83665.9675395928
83665.9719920066
83655.0920242989
83655.0288773537
83646.0790389294
83646.0558941072
83635.3831343119
83635.2493844361
83638.0155574417
83637.8572273661
83630.0163307559
83630.2712083012
83619.7373226548
83619.6794021834
83612.3308795191
83612.4354505481
83612.8887083484
83612.7526339475
83604.3666205685
83604.316162699
83597.7468792903
83597.7581795927
83590.4743589319
83590.3583250697
83584.4777289536
83584.5069763233
83578.403391353
83578.2374438992
83573.3272394235
83573.4427193066
83568.7855758555
83568.5954326445
83564.759807179
83564.5785216469
83564.8617769721
83564.9284616033
83562.1273234859
83561.7653667021
83561.0873629544
83561.2347852244
83561.9750926046
83561.6916459588
83560.9097463696
83560.9882164903
83556.1068127702
83556.1206169094
83555.1081379681
83555.1733291238
83550.8395053721
83551.1813486146
83549.7720890525
83549.480066112
83545.1249972431
83545.9095333603
83544.4704002618
83543.7129084137
83540.7582159175
83539.7406533713
83541.0713448246
83541.9514460331
83540.0159662899
83538.799171498
83537.9503528059
83539.2257962383
83536.3713375165
83537.1536491943
83535.8689670187
83535.0305005011
83532.7207122541
83532.978104485
83536.0786864872
83535.8660347621
83537.6834098136
83538.1284634386
83534.4582150985
83534.5144012693
83532.9390299419
83532.1655254473
83532.2801757013
83531.8529246827
83526.5852425051
83526.9745618701
83526.5771796807
83525.4251611752
83519.3853844921
83521.7575549491
83507.7316923729
83496.6765768131
83489.6036131505
83495.3575693741
83480.6111859896
83479.7135699369
83463.3585983571
83463.7338119806
83477.3731381864
83477.6985209471
83475.0259124406
83468.622214895
83454.5290298988
83446.5720756646
83441.1070515981
83411.8285956819
83390.7702219177
83358.9491565612
83308.9304497957
83318.859737326
83326.615329113
83321.9181753366
83312.6292638073
83302.1372186758
83303.6356649007
83288.1472673664
83292.5014078442
83312.996442606
83315.2601055561
83348.7825150084
83342.2899670459
83380.9507543042
83375.4735896068
83383.212846938
83389.3172607934
83386.6834513435
83383.3741203727
83417.643704409
83416.4722706512
83435.7616699725
83431.9157082387
83461.880148885
83459.0001929536
83458.6513281702
83460.6663557695
83466.1091626314
83462.1949350699
83463.5577588412
83465.463762691
83485.6156343983
83480.3562168377
83488.9582839154
83499.4876483525
83492.8914391437
83486.017759512
83487.9145510522
83490.4197739611
83487.8331711464
83491.2847323267
83495.2973856264
83491.4708981896
83514.2098489574
83505.8584906868
83514.3276871669
83532.4314475592
83508.3723715072
83505.3164411781
83500.7541496114
83510.0480447158
83502.5869618764
83498.1578538098
83490.7160101511
83488.5950592931
83495.5224126667
83494.7618674759
83497.9764224908
83498.8562869292
83498.3601056383
83497.8307698343
83490.2747309372
83491.3424792504
83493.651405598
83492.4850941421
83499.4974487263
83500.4262826472
83508.5377400075
83508.0360517273
83518.8270588169
83519.4017010698
83532.2076746386
83532.0728514432
83545.235829344
83545.2471752578
83551.7088620515
83551.8408963093
83557.9045342971
83557.4473224967
83580.805466184
83581.9369346325
83601.9168834477
83600.4275445641
83618.5802472403
83620.2956826699
83630.0579471867
83628.3488053195
83631.7261124519
83633.2479297938
83655.9677697831
83653.1421134848
83649.2449437021
83651.5831157887
83671.0438409808
83669.4577895974
83675.6358200686
83676.3857900466
83681.9281988382
83681.8449520616
83672.7637985428
83672.6826660462
83675.0629655281
83674.2601279239
83668.6585943478
83669.4716737251
83657.4336561713
83657.0580682435
83649.2202169598
83649.6830038688
83648.9596021578
83648.2674899207
83637.6779385651
83638.0866026243
83630.2115351051
83629.8485145193
83620.1995301589
83620.3447230332
83618.5416777742
83618.3514641651
83611.2218427353
83611.4238530817
83603.7007573489
83603.6822639835
83597.2252198815
83597.2801753768
83590.5950313388
83590.6062858378
83584.666767742
83584.7101716673
83578.8765219693
83578.9138413126
83573.7309141617
83573.7033981743
83568.8307752124
83569.0464209347
83569.0229193556
83568.8515123751
83564.8302227912
83564.6939971386
83564.7373718412
83564.7605569509
83564.3617754724
83564.2558939904
83563.9576526739
83563.9620471619
83561.3413068126
83561.0510074048
83559.9426181398
83559.9946451028
83560.0296355577
83559.7316738133
83558.4813095019
83558.5263463325
83553.822111841
83553.6848194872
83552.0336722664
83552.1684906205
83547.9568785589
83548.2565437282
83546.3052979519
83546.0455506674
83541.7863174975
83542.4925372193
83539.7661335923
83539.1126050968
83535.4901108852
83536.1062345698
83533.3489650123
83532.5367694638
83531.0796841228
83532.0109236437
83529.0283843696
83528.5645337776
83524.5587506404
83524.3719203825
83520.9687499739
83521.2450612818
83524.9733613763
83524.9032412142
83528.8976731151
83529.3702014823
83524.1698028004
83523.0888059375
83527.0702817502
83529.865602584
83526.2552715833
83522.3743784094
83517.6600832216
83519.0002668466
83541.5772115416
83528.0922302061
83521.8556002076
83512.4046382265
83533.5116488834
83525.88232841
83522.5400779473
83516.6700062395
83521.7647218849
83529.5599515162
83517.3833411112
83518.4774129357
83510.9277851832
83519.7912018365
83507.6339240817
83501.6183839764
83487.2844395716
83486.0279742514
83484.4530728967
83480.534975958
83467.2012351316
83464.0598522076
83447.5995312173
83448.3229798618
83436.9494771024
83437.1568045493
83451.4986083768
83452.7647938398
83437.587499428
83433.0124654301
83433.9813728951
83427.9578749221
83407.824474889
83411.8338697288
83406.8990250958
83401.2138275176
83369.8496045265
83368.1547406648
83347.1477794808
83346.8025044589
83333.6586440602
83329.1826405548
83304.0133674879
83310.703978035
83308.9993493194
83307.7859095413
83325.9147288361
83303.3112735088
83295.6356803391
83308.4697301364
83324.8405369763
83310.3677672591
83301.2231967439
83311.3667649971
83302.2242912481
83293.7718643155
83288.9598688314
83300.4111104264
83291.7936757664
83281.8075322325
83273.2708211129
83279.4001731129
83292.0188637454
83286.2813719364
83313.0193526637
83322.6341025951
83321.1410260283
83330.2429490671
83327.2595115915
83317.4963127727
83316.3142001865
83317.207919851
83354.3026291617
83354.5327813202
83347.8701006665
83348.1885620036
83341.6101671037
83341.3257847396
83334.6921239846
83334.7399997413
83380.7819961373
83379.8443536986
83415.1661370578
83416.308569046
83442.7194073366
83442.4299725929
83445.386763349
83445.6591955498
83453.4635563369
83453.9676555646
83460.2315907332
83460.2792512903
83468.6974275058
83469.5746684803
83474.5724280049
83474.025718439
83482.7896182343
83485.6198892534
83484.5514980543
83486.0572098379
83488.9969069284
83487.6978060196
83478.6463765848
83480.3383335025
83484.3580483595
83485.8585729437
83482.8488708043
83481.4251812497
83468.3651208426
83470.1519549513
83473.7316625967
83471.9793087564
83482.3159330057
83483.4368908162
83497.1557456697
83496.4337945233
83514.2748932826
83514.5454852344
83535.5862962985
83535.6931806808
83533.3713545105
83533.0951663783
83560.6093919085
83561.3628685662
83591.7563975541
83590.3582282398
83615.0624168668
83617.064126572
83640.0649758504
83637.378704243
83649.5114440291
83652.4595459324
83672.7700781445
83670.5443514743
83674.8585285128
83676.8927039997
83686.4207697412
83685.560991124
83690.0225553946
83690.4240217847
83686.3035814063
83686.0824615417
83684.9928121475
83686.5308087256
83684.6123874242
83683.2349566769
83676.9498884327
83678.8552464822
83672.184694569
83670.7519047438
83666.2241829407
83667.3773034669
83656.7796424613
83655.9453740707
83650.1941229385
83650.9707898655
83643.8638579436
83643.2159885227
83634.0962980429
83634.5080331692
83627.0954273717
83626.746843829
83621.5180276049
83621.8838329211
83614.7981924855
83614.5573722239
83608.3530937598
83608.569289739
83601.8935923807
83601.7894073941
83595.8563672613
83595.9484545199
83589.8667875116
83589.8407544351
83584.170207628
83584.2089984756
83578.7763556058
83578.7906216494
83573.6916141908
83573.6626593314
83573.2694362916
83573.323498391
83568.8070577713
83568.612066204
83568.182429413
83568.3207512212
83567.6845424502
83567.5184479233
83566.6820675466
83566.7754353816
83563.1368767197
83563.221363987
83562.5088514288
83562.5013516919
83561.4623313644
83561.5511654892
83560.6471040319
83560.6353289128
83558.0444203292
83558.3170108859
83556.7403339447
83556.7057879206
83556.1494534337
83556.4306702725
83554.8395970198
83554.7730431942
83550.1483114621
83550.4219689087
83548.0205951028
83547.6440756358
83543.6473866091
83543.3882946525
83539.7776182484
83539.9952736113
83535.0368864809
83534.9190615798
83530.6450386156
83531.2363940314
83528.4127101156
83527.5615364957
83525.9508850922
83527.0423546751
83524.0006454924
83523.1503186092
83518.8667193214
83519.0098820643
83515.4254338442
83515.9966228613
83514.3291386523
83510.5107826313
83515.8849128938
83516.532630674
83519.6618878198
83519.3252387631
83513.0180877043
83513.0814696575
83507.6885948741
83507.8492796313
83510.6508998938
83509.9240500565
83502.8448559737
83503.2568866795
83509.995436581
83510.7192121849
83505.2341912382
83503.6045646246
83511.6746243857
83516.7434760469
83504.9223812713
83501.1104604732
83494.4168496768
83500.1888468358
83491.1746742686
83488.02995822
83479.8207264999
83490.4605507275
83467.7678586636
83469.4847359673
83453.6563869445
83456.9128815338
83432.2719998726
83430.3923446624
83415.7597510362
83417.414810465
83400.4123577737
83397.633671034
83421.6036773731
83424.0760774282
83416.5230123358
83403.2231738947
83373.7286251722
83380.1216190896
83381.8751176844
83357.7540623725
83355.5920129163
83331.8504446101
83335.1082638178
83324.9452890213
83324.2416539758
83306.9245825278
83303.5511694317
83308.2164000831
83301.9934704712
83298.4922946399
83306.8698783192
83288.843317023
83285.1992913477
83279.3338437294
83281.0067192343
83282.1618867415
83277.2002170304
83286.4240335882
83292.3179612601
83286.5983676375
83280.854292796
83277.6036708271
83284.0205111276
83278.9074530504
83272.634256529
83265.6621106055
83266.8490017379
83261.7401973379
83261.9518006211
83257.0821882384
83256.9425845037
83263.0530105672
83260.5109574264
83264.4409353389
83265.6997720329
83267.8599891991
83260.0916280027
83255.7346148854
83252.2695670677
83287.1179289333
83283.6394459739
83270.3687539883
83272.6991067796
83253.4819670207
83248.9785034373
83228.6411623138
83233.1794955856
83284.1217461632
83280.7619401011
83266.1039752303
83268.9797312067
83250.8585312108
83245.2733890764
83221.3253770737
83231.1015518251
83210.7686179881
83199.6059919189
83181.3054158717
83189.0870035262
83216.7694641983
83210.8256708682
83207.9030921172
83209.8609696984
83207.5499611966
83206.3208722401
83206.5426793692
83207.3046170275
83208.0183722112
83207.3309583513
83279.2032474886
83280.6913915362
83281.523744714
83280.1502131272
83283.4534426085
83283.8282584979
83308.9900550618
83309.9789611404
83315.873128552
83315.330229067
83325.1952640395
83325.3317717875
83338.4299140124
83338.1657399657
83355.2557289901
83355.5788105637
83377.000286673
83376.1143990445
83399.0853384138
83400.2578651326
83425.6781401774
83424.1090517583
83447.4156512213
83449.1295282499
83471.8167297889
83469.8213723105
83487.6980237415
83489.7193020429
83505.7945856451
83503.7643411506
83515.2658513581
83517.0616310601
83528.0483986615
83526.5573511346
83534.5284604251
83535.515499672
83546.464199525
83546.0514498817
83559.1568626273
83559.139597836
83577.7888927752
83577.8014034779
83602.5420678378
83603.0069238879
83625.4401480188
83624.4047244383
83641.8409639313
83643.003884236
83647.2915696065
83646.1959913817
83646.152896597
83647.0308733242
83640.9484905271
83640.2154507482
83634.872450168