/*--------------------------------*- C++ -*----------------------------------*\
| =========                 |                                                 |
| \\      /  F ield         | OpenFOAM: The Open Source CFD Toolbox           |
|  \\    /   O peration     | Version:  2312                                  |
|   \\  /    A nd           | Website:  www.openfoam.com                      |
|    \\/     M anipulation  |                                                 |
\*---------------------------------------------------------------------------*/
FoamFile
{
    version     2.0;
    format      ascii;
    arch        "LSB;label=32;scalar=64";
    class       volScalarField;
    location    "1400";
    object      nut;
}
// * * * * * * * * * * * * * * * * * * * * * * * * * * * * * * * * * * * * * //

dimensions      [0 2 -1 0 0 0 0];

internalField   nonuniform List<scalar> 
162506
(
0.00149778876877468
0.00155217049963156
0.000102987335348061
7.88006859034437e-05
3.92610663909639e-05
9.52643202227839e-05
0.000460202930243396
0.000530880530436339
9.31985228120528e-05
6.34523197356533e-05
6.95894836032895e-05
0.000885928380330984
0.000936964041889091
0.00130190650287925
0.00293194666435064
0.00332150536668804
8.95290104544221e-05
9.28914122841416e-05
0.00132938332519793
0.00067762267748299
0.000910846636916247
7.98740091841817e-05
8.51388391902795e-05
3.87255411955798e-05
4.3601413910523e-05
6.12589561836666e-05
5.67982600014988e-05
0.00570465955179908
0.000106154455672696
9.82012871345262e-05
0.00813593046597576
0.00772436004404206
0.00496191265937766
0.0104495440066579
0.0150001157161147
0.0149413112888034
0.000100603869108586
0.000109812995697466
0.0106568078714021
0.00846288494277213
0.00011312938456668
0.000110713027929965
0.00510443874248178
0.00458116687706938
0.000110746207510159
0.000110630774980857
0.00324808714645706
0.000815452346582613
8.70931775607316e-05
4.53255902022475e-05
8.51772456848296e-05
9.13393091750989e-05
5.00791229347258e-05
9.64931719996249e-05
0.0011608604737391
0.00128191097211635
0.000101217938239128
9.79042391229315e-05
0.000863635019172211
0.00214227996107643
8.25008522381943e-05
8.17069622427795e-05
0.000955021209285816
0.000819817703786774
0.00228421942904684
8.06791003428012e-05
9.25357868001813e-05
0.000109623859596359
9.78207202854506e-05
0.00434994659406092
0.00283493676037437
0.00418189005404998
0.00593931360036735
0.00352953410400674
0.00247402364730682
0.0019245795266893
0.00167930781859095
0.00333929521406305
0.00298426060966128
0.000102682645814027
0.000113684749182441
0.00530310271677741
0.00507018509969817
0.00827174256902408
0.000102931265912384
0.000112842927196648
9.9922311378405e-05
9.02204698386182e-05
0.0101040153491531
0.00566182119737051
0.0131021717968822
0.00962084102585664
0.0145272005370002
0.0125320432359773
0.00871252942851513
0.0116666668420252
0.015000310636677
0.0150014787460432
0.0150016948814992
0.0150004408938965
0.0150003383781505
0.0103848670695185
0.0109422309919
0.000109774165199241
0.000100687835369391
0.0149430622814984
0.00731792022359937
9.82866005739136e-05
0.000107008833944338
0.00569906893224073
0.00570780137832429
0.000110705807504743
0.000113664529507946
0.00931352269266343
0.00803722932498809
0.000111184056142987
0.000110076280346205
0.00787770581959264
0.00485483661110858
0.000110956973584706
0.000110718488212579
0.00380468825398052
0.00334297333442714
0.000115614852849977
0.000112463107496546
0.0023035046069356
0.00112570273130919
9.69967053882699e-05
5.41724207372749e-05
9.42750613354972e-05
8.7678602957718e-05
4.83543448254369e-05
7.64188526406604e-05
0.000744108674525646
0.000702623902866418
0.000112255928343794
9.67025258714736e-05
0.00131389224102142
0.00219430257428464
9.34315812877054e-05
8.75991734862928e-05
0.00271918118041534
0.00373559748187059
0.000107805805550701
0.000106073291338891
0.00351566775895169
0.00824552641306626
0.000106405778203941
9.81114414012864e-05
0.00480107172575027
0.00691892658511588
0.000104860853267265
0.000102388895798579
0.00802706961187797
0.0070963606292773
0.0110141800183227
8.65932123157321e-05
9.60092592109493e-05
0.0001059128130008
9.42711165961e-05
0.0149278965869261
0.00818181231207208
0.0150011155030391
0.0150007007986704
0.0150003450820762
0.0150008112795271
0.0150010938424945
0.0150004694650594
0.0134228876843234
0.0141982417286881
0.00868983283650981
0.010453846755686
0.00703758973973504
0.00489601645190261
0.00126311445200681
0.00278923211338055
0.00312905394193355
9.01386715648999e-05
9.62959759019588e-05
0.001435558473422
0.00168890094438622
0.000103017049794415
0.00011080497112148
0.00318638637795152
0.00532191805718811
0.000110970552880783
0.000111898901596201
0.00415784751723198
0.00515524667369125
0.000110579391332075
0.000108168134850003
0.0027611942688165
0.00274978749318432
0.000105267411770704
0.000108592419600263
0.00251814990695951
0.00135779785131447
8.98285323576888e-05
9.4639827463546e-05
0.00138290049895715
0.000725695259105753
8.71364120874822e-05
8.64021721672352e-05
0.000720414994265464
0.000611247075559405
8.03573788245268e-05
7.61395876263855e-05
0.000697385469239164
0.000640348146889461
7.77319488324817e-05
7.3117341260076e-05
0.000815240408835636
0.000588006684663169
5.39889311631665e-05
5.21222528926289e-05
0.000509988897004744
0.000618424363875696
6.46504992142573e-05
5.75186566604479e-05
3.32082713966168e-05
6.77641918212851e-05
0.000603928136631518
0.000540500020631405
7.23237997024933e-05
7.24098860144917e-05
0.000492166064499873
0.00048091006542542
6.02957852777345e-05
3.58893050853749e-05
6.82146026982843e-05
7.44077662712095e-05
0.000384360114810411
7.0537159810683e-05
3.37053610317811e-05
3.50647864678734e-05
7.43909249778378e-05
0.000503874715478804
8.75681963125493e-05
8.46249945648037e-05
0.000561175608644716
0.000968526465869939
8.65180052529469e-05
8.63003936525511e-05
0.00153006540902403
0.00207989239291488
0.000110603413513652
0.000109298773330768
0.00293719878711092
0.00432226655106535
0.000111643313589486
0.000107225887374635
0.00702186708632524
0.00436783695694985
9.51543145300418e-05
9.55641763350886e-05
0.00442218479445018
0.00496044305139122
9.77707711267127e-05
0.000115481095077117
0.0089425316561376
0.0113981428187276
0.000114555076597455
0.000113471436851543
0.0112409397974706
0.00701967443744471
0.00010643521748377
9.44094011634121e-05
0.0149281213267392
0.0147847214577605
0.0132759671874544
0.00587777827154666
0.011667840626297
0.00941393424738558
0.0122222338453123
9.55658863077852e-05
8.70039149532849e-05
9.01437834751513e-05
0.0146915548393853
0.00536393027792226
9.95847870703462e-05
0.000103669344891919
0.00671432742565448
0.00564682255861686
0.00011332157452246
0.000102799214640986
0.00279486950245854
0.0029521210870699
0.00412944843321939
9.7156639323469e-05
0.000110734324138666
0.00011300569352933
0.00010284424361474
0.00766057703140256
0.00509395874062938
9.1019993232079e-05
0.000831307009733542
0.0023509719201437
8.14042013234387e-05
7.01139063760588e-05
0.000880432966119697
0.00101908938477426
6.37797994327075e-05
9.47446683711404e-05
0.000531952141947224
0.000455062171943476
7.79975892169042e-05
4.00561713144162e-05
9.87572103205223e-05
5.99531849423052e-05
6.40394863741085e-05
0.000927460732356405
0.000680693256245774
8.46168272715111e-05
8.28990288894114e-05
4.37522084174612e-05
3.95217212782333e-05
8.37537315523224e-05
4.57510853760812e-05
8.63678649123932e-05
0.000777732237930459
0.000875654838350572
9.74995551310132e-05
0.000103776298294256
0.00128210122181388
0.00117352743607845
9.25379088244768e-05
5.03683679968518e-05
9.5387761132071e-05
9.68377542769919e-05
5.38092994652533e-05
9.33021919816232e-05
0.00115156503289684
0.00236287257672328
0.000113802371870808
0.000106889948761173
0.00267040058345721
0.00135402272190376
9.44190568697851e-05
9.52187397528219e-05
0.00128780801246493
0.00135005142577058
9.68205567200294e-05
6.4754188293414e-05
0.000712966146241567
0.000422594078016695
5.19327218632557e-05
4.29895615296435e-05
0.00028891128971769
0.000373848112707544
4.75729470368002e-05
4.21577679126956e-05
0.000287824986068708
0.000385478683675982
4.75389956502452e-05
5.36924732064899e-05
0.000513714134864549
0.000622740988247439
6.21249217808035e-05
3.35136765122384e-05
5.22791107939929e-05
5.30025762008944e-05
3.82922393975065e-05
6.54329533299683e-05
0.000391795674220367
0.000488299288005178
6.65922398035942e-05
6.29024104275476e-05
0.000864185234264784
0.000419059123727795
5.64653901132714e-05
5.08524373935321e-05
0.000383940988809423
0.000313633613105618
5.87223630711785e-05
7.29390482265303e-05
0.000428185573417509
0.000826146421619231
8.04399231242123e-05
0.000110107250883022
0.000836381262244255
0.0013159020138506
8.93471425900038e-05
9.54958309869501e-05
0.00156072159203613
0.00262152626353084
0.000113726224977756
9.82751529504108e-05
0.00289619822197483
0.00413470624756073
9.60050541677986e-05
9.65779902208191e-05
0.00413528773983912
0.00489573854449622
0.000115128570861046
0.000114692895289262
0.00793505760738022
0.00792059585413891
0.000115010555716683
0.000114997471215627
0.00894417304956613
0.00493980857079847
9.64765202277291e-05
0.000100261422459969
0.00754468413108952
0.00319897592893585
0.00774644650122318
0.00777241519509024
0.0147373986670827
0.0119471205426492
0.0105112709938662
0.00879793573792314
0.0115705708984348
0.0134230969656029
0.0110915250708662
0.00476620624284112
9.85274967610006e-05
0.000105249645880167
0.00819970406106267
0.0034174776498978
0.000105878048002231
8.30663965302124e-05
0.00205771289008257
0.00290615261795767
8.69786554671416e-05
9.27781575760331e-05
0.00256278413759603
0.00136896474058681
9.76360448004155e-05
0.000109872551725836
0.000730191915863506
0.000824839601138404
8.52834173657524e-05
4.67750274024156e-05
7.71510319587061e-05
8.44150338803831e-05
3.39707655826077e-05
7.08180799516381e-05
0.000540859542133667
0.000635654141333555
8.545383922147e-05
8.61139765329672e-05
0.000724870268656831
0.000668625502847694
7.98668130193567e-05
7.57800288690348e-05
0.000586097468329475
0.000545901814137809
7.63962232867704e-05
6.32771157384314e-05
0.000374516364313516
6.72049691309487e-05
3.27133072745523e-05
3.27011825458598e-05
5.57619580576444e-05
0.00038911605157338
6.15260869045594e-05
6.38145010151475e-05
0.0003225680173526
0.000411063068647484
5.45926421955358e-05
5.25670536001653e-05
2.81025457516041e-05
5.04933242302719e-05
0.000424318456951331
0.000488984143255672
5.72578444947768e-05
5.31296229036977e-05
0.000408976877496523
0.000283302670699645
4.34162153208942e-05
4.00492543669273e-05
0.000259887332333547
0.000245902868744446
3.81401187114674e-05
3.92129490623541e-05
0.00025008349244506
0.000184572114655025
3.64078613592231e-05
3.55919859194473e-05
0.000214118730867605
0.000177631796037215
2.96748594796619e-05
3.73459796479198e-05
0.000190473887722212
0.000259479997732151
3.74490281834816e-05
4.28355135552031e-05
0.000295312859258501
0.000342621573796533
3.77660886478673e-05
4.47056116223169e-05
0.000325334325832855
0.000277069496495777
4.32873302766114e-05
5.5290624162875e-05
4.28092569944799e-05
7.00589419476925e-05
0.000312054068836223
0.000380657983311036
7.36483178715298e-05
6.74544266458674e-05
0.000448602508157619
0.000507094131715134
6.27924680334219e-05
5.64080289915263e-05
0.000445011452641167
0.000432517426556527
7.55668639044174e-05
7.25222715451895e-05
0.000491416574633261
0.000494212289441712
0.000610705953742524
0.000492634263034518
0.000304171132244629
0.000435656449745904
0.000835201152939732
8.29696778252029e-05
6.5663178275312e-05
0.000577979263950545
0.00036403368299083
4.64295444239299e-05
5.11110255303889e-05
0.000461488155779198
0.00075434538045931
6.36760456653261e-05
6.79961043482834e-05
0.00047413336122819
0.000390470345431945
6.0270769645378e-05
5.44102708473993e-05
0.000333856063670989
0.000336776183654149
5.50311060968103e-05
5.30452993180292e-05
0.000499826709676576
0.00095019917440955
7.4512720934208e-05
0.000477664567841353
0.000714343224377291
7.37897900036062e-05
6.30571359509464e-05
0.000583637730327881
0.000505536143322652
6.06657297985292e-05
8.15246740346134e-05
0.000380721945446403
0.000461443164246332
9.74586542112261e-05
0.000107545078893604
0.00065129515104788
0.000663741596629355
9.3630788443749e-05
9.22574152676104e-05
0.000973460732322173
0.00177981650459816
9.22432350402756e-05
9.66512501304361e-05
0.00172935560702948
0.00304798081076442
9.71764920059332e-05
0.000114938128654044
0.0027510593384205
0.00283517623957783
0.000115299584182945
0.000115420453340227
0.0051951869405651
0.00411908477503534
9.69205699636213e-05
9.57631079217083e-05
0.00440126465057139
0.00435109702243251
9.59423544993364e-05
0.000107235142350137
0.00760978684761918
0.00412408022743952
0.000107786861403566
0.000112850847472997
0.0032065653450184
0.00234720422971892
0.000110595402922982
8.33182741216726e-05
0.00187593771419543
0.000897124026270709
9.17655834377599e-05
8.11772360413295e-05
0.000521326906811309
0.000299534157076068
5.48777686285802e-05
5.80960923570352e-05
0.00079159296428985
0.000560293298868678
4.65135880635244e-05
5.68090612031943e-05
0.000797266984903356
0.000585278957181087
5.46517374844071e-05
5.32611924528339e-05
0.000417817766311495
0.000423311424464092
5.47498861095647e-05
5.40221300756965e-05
0.000430786454644632
0.000389152648894976
4.96175440472247e-05
4.82912963532834e-05
2.61108548892041e-05
4.10217897076917e-05
0.000285140931240836
0.000243902694575784
4.25341594670753e-05
4.55230298552506e-05
0.000224921299453041
0.000334895089992105
3.98422479659766e-05
2.46712346280403e-05
4.25956441133466e-05
4.49127449194083e-05
2.66073757999708e-05
4.53851171632451e-05
0.00042881481584149
0.000443180061253972
5.32050014793147e-05
4.36833450673926e-05
0.000306305657806545
0.000217300866043242
3.63280828025017e-05
3.8525256829263e-05
0.000182489776059812
0.000174448800362077
3.72382248497631e-05
3.26497190111207e-05
0.000129672421869252
0.00012784221901112
3.19739662280506e-05
3.07378654842615e-05
0.000153040664157497
0.000147310073378907
3.34205431902125e-05
2.62045547037112e-05
0.00012618386185015
0.000140580870209329
2.41451825255072e-05
2.97857564208329e-05
0.000168627354145994
0.000213459729233797
3.01988838448351e-05
3.5664496917063e-05
0.000242823453456418
0.000263711562504949
4.08053024670224e-05
3.35271441961175e-05
0.000246797647154944
0.000212274798940899
3.78712646348274e-05
3.89860975228409e-05
0.000204283083570412
0.000265663951387343
4.76863897737841e-05
5.9402605457589e-05
4.76888310570281e-05
7.56795367745546e-05
0.000303633353695258
0.000370223134017297
7.98163892305938e-05
7.31579480868362e-05
0.00043060015847698
0.000575880425735724
7.03243689763767e-05
8.1135243743802e-05
0.000556549246510322
0.000439030968577915
8.01544973523258e-05
0.00037349147326395
0.000294556735210695
0.000184145712940989
0.00012480649304838
0.000137438607068997
0.0002117644562102
0.000223246690453941
0.000156878860501188
0.000281534523179874
0.000472788598969993
0.000651698019865178
0.00010892000882562
0.000110068338968583
0.00096261269528617
0.001584426961727
0.000113286266350012
0.000113803062220741
0.00159224627626523
0.00169934356576821
9.76761471441488e-05
9.76068147361027e-05
0.00316756698448638
0.00304131476514199
9.692996644778e-05
0.000115203841426816
0.00303966716566938
0.00171356808236773
0.000111091407586718
0.000112609221229643
0.00129373756981561
0.000935797918309561
9.50965819201822e-05
8.26791706480211e-05
0.000963741951207652
0.000412044804312387
7.36017229254087e-05
7.28024607319574e-05
0.000425864730076626
0.000409494638661094
4.1596672559678e-05
4.9127814607627e-05
0.000464017543120755
0.000444786491960759
4.79971936536606e-05
5.23014633027557e-05
0.000328601437476928
0.00028783881569502
3.93158409334423e-05
2.58802677084327e-05
4.45234866733743e-05
4.6440963684326e-05
2.96985295126344e-05
4.12349864206887e-05
0.000233896116206474
0.000200669926581817
3.53622743924141e-05
3.02274872576137e-05
0.000230010045899802
0.00018975121046267
2.84300899319827e-05
2.34421732925539e-05
0.000175298846906696
0.000148559007065941
2.28008975728453e-05
1.74677594603527e-05
0.000125653732966164
0.000111452942447624
2.22482437750494e-05
1.82598618497632e-05
0.000107158605627624
0.000108753930636341
2.23737226208179e-05
2.32680502579397e-05
0.000107600171434503
0.000106058696239337
2.2937511022382e-05
2.24587458695301e-05
0.000106084095857223
0.000107870396135172
1.82012265370872e-05
2.23986504910707e-05
0.000117276534574839
0.000135120169528431
1.78582637616968e-05
2.3229693591441e-05
0.000154928459496115
0.000188861252829326
2.53575872537656e-05
3.08815119109512e-05
0.00021266236500305
0.000181765461123176
3.0770238234909e-05
3.29849297001918e-05
0.000175121298913411
0.000160620626234045
3.8933723066225e-05
4.30057829637282e-05
0.000196542679224196
0.00020484951795119
4.97782640019119e-05
6.12964275650186e-05
0.000293407419492458
0.000348824803403066
8.32480598726393e-05
5.38973160453423e-05
6.98394541107993e-05
8.09019678878903e-05
5.87405728785584e-05
9.37720009811649e-05
0.000449451935823105
0.000552088264848038
9.58399698598889e-05
8.75505403600151e-05
0.000419663476231425
0.00045485236634485
8.09006436612376e-05
7.62072206660086e-05
0.000496060086010451
0.000570680070236788
7.96065672737336e-05
7.68549530912182e-05
0.000571203971494693
0.000522157241497751
7.24911846580353e-05
0.000507863499124206
0.000360850334345784
0.000410918107785376
0.000383198669899393
0.000434744263571289
0.000508566944268949
0.000626615336139739
0.000111637904702632
9.79915886175546e-05
0.000760905815017792
0.00105684820064744
9.56899337608395e-05
0.00081601844845501
0.000766801571115454
0.000720734947528324
0.000944432596000225
0.000110147832942101
9.55746024397227e-05
0.000977190994950199
0.000973077171666347
9.27791183175123e-05
8.84747397409944e-05
0.000949059422885104
0.000594952101694344
7.66626713812164e-05
6.59892995964972e-05
0.000713564668889469
0.000639947490951238
5.96337422454174e-05
5.95970770217342e-05
0.000727358293816993
0.000593531468047169
6.46392247367904e-05
6.52985353559084e-05
0.000429548010888967
0.000345294434184749
6.14368177200287e-05
5.35249844682037e-05
0.000332365386788148
0.00030439383663188
5.12188106856123e-05
5.02370205327019e-05
0.000255814872527104
0.000220513749309646
5.84248262470092e-05
4.91075926394121e-05
2.98508049987613e-05
4.30380692113657e-05
0.000216286066368778
0.000181966867611096
3.62421464245744e-05
2.86906230792028e-05
0.000197000028699367
0.000190434985751687
2.44375020465624e-05
2.08162154827178e-05
0.000129833801749705
0.00014570556391657
1.61721024891306e-05
1.79062481075701e-05
0.000132799563397876
9.69959311022817e-05
1.992729171307e-05
1.60175621649177e-05
9.71246149181302e-05
9.47992489091678e-05
1.92232486953169e-05
1.67060817785401e-05
8.56502993682223e-05
8.06337126365621e-05
1.90448219745656e-05
1.6938228500717e-05
8.34975768000108e-05
8.96942645796404e-05
2.761182668676e-05
2.08023327213687e-05
9.73909505751531e-05
8.1818651794051e-05
2.49218785134015e-05
2.61414535148819e-05
8.69821868110916e-05
9.39739103214615e-05
2.98418689473647e-05
2.77889223037617e-05
8.9607299415025e-05
8.61722931166959e-05
2.0882695568933e-05
2.47525798575001e-05
8.13088839037982e-05
9.26483349321733e-05
2.03061011884397e-05
2.29712790284342e-05
8.94361744160496e-05
8.31635846409776e-05
1.65469661294197e-05
1.73077963727173e-05
8.3112746394111e-05
8.75509752589356e-05
1.70396672930201e-05
2.06531603652201e-05
0.000102260393842986
0.000109425188035864
1.66166659634702e-05
2.03565281356208e-05
0.000107055144854097
0.000146057554719276
1.8640404838601e-05
1.78365119635419e-05
0.00018266288417878
0.000153804728363687
1.86612859963919e-05
2.08087551183651e-05
9.62465378898509e-05
0.000102121026450818
1.57575296068295e-05
2.2505373088515e-05
0.000104111092594509
8.96526381316146e-05
1.81094066862269e-05
1.78563398196515e-05
8.16913713444686e-05
7.95900984714202e-05
1.67223911465989e-05
1.9688641557793e-05
9.02341738756915e-05
9.60714756527556e-05
2.07968433859019e-05
2.48796884495045e-05
8.48256936884896e-05
7.92249441424874e-05
1.95864152315784e-05
2.51778941069019e-05
9.49885403006894e-05
9.80710391311231e-05
2.6010075197517e-05
2.46591093598727e-05
8.74719352830978e-05
8.8836682370735e-05
2.60217458601372e-05
2.08556350071634e-05
0.000103821748592616
9.40625930365537e-05
2.10851825349202e-05
1.63226153161813e-05
7.89795739829134e-05
7.92039867394578e-05
1.83451156893966e-05
1.77165715458943e-05
8.8225246365514e-05
9.60611521030479e-05
1.9928167757538e-05
1.56417676641474e-05
9.13714322706367e-05
8.8905296966963e-05
1.9756166342044e-05
1.85154728636033e-05
0.000126987639493266
0.000160790460207015
9.15761064477842e-05
7.98621209572539e-05
6.10124149741908e-05
5.94308071451708e-05
5.97156106196182e-05
6.74153952754468e-05
8.72035151447114e-05
0.000126576725830727
0.000248321822921416
0.000334308473087581
0.000498958010506468
0.000653208582417262
9.51416532162216e-05
9.20579204433902e-05
0.000668857000478137
0.000555398577592322
0.000100816765860115
8.19026282038666e-05
0.000493373265968974
0.000429884855990059
7.27267573044359e-05
7.00758051311908e-05
0.00046065038519972
0.000472233018113042
5.75400010027491e-05
5.6136214092061e-05
0.000519763115129254
0.00041009647759534
6.17387848549335e-05
6.5970963266589e-05
0.000358384087700715
0.000297355835650556
6.49557487850689e-05
5.75388672507769e-05
0.000266747964316545
0.000272703241177241
5.66417977863025e-05
5.23399415131834e-05
0.000212354760560054
0.000197546442369228
4.85513831105443e-05
3.41880038269186e-05
4.49751345554739e-05
3.97994371023773e-05
0.000167966740180714
0.000185821712127341
3.07798127072471e-05
2.28856673560814e-05
0.000154435244301358
0.000166648988322694
1.92088610689423e-05
1.96944801955782e-05
0.000119736178009437
0.000108183008969568
2.18949360512765e-05
2.15530221308382e-05
9.82887367087398e-05
8.37600354991515e-05
2.34840932697847e-05
2.27370776456539e-05
7.5210750189176e-05
6.95422945491316e-05
2.2575495363674e-05
2.29176858346736e-05
6.0616531572974e-05
5.42754458011231e-05
2.42078905179843e-05
2.3962980823894e-05
4.9698827064678e-05
4.53780888679753e-05
2.31890901472514e-05
2.10080671347705e-05
4.30976884560304e-05
4.01301234108576e-05
2.30285347687325e-05
2.46554273309919e-05
4.0521382197613e-05
4.03190266318965e-05
2.46538650859816e-05
2.36897745184727e-05
3.99005069620498e-05
4.12705338432812e-05
2.2693338420319e-05
2.33652183903721e-05
4.19442364251271e-05
4.54197378267356e-05
2.24800076968167e-05
2.50701377285572e-05
4.99355566847316e-05
5.56026082129132e-05
2.38768176250402e-05
2.28684985849796e-05
6.15759072703649e-05
6.67908021005414e-05
2.34086737479302e-05
2.40275678726861e-05
7.65805246632725e-05
8.60719632853077e-05
2.34617953711947e-05
2.40312364356445e-05
9.38271013161515e-05
0.00012010288075787
2.33356674628908e-05
2.20822673964944e-05
0.000118112945778057
0.000116828464964783
2.17050834114335e-05
2.24534885719402e-05
0.000149309120245129
0.000142241294668365
2.85046471474645e-05
3.62107289209036e-05
0.000141268362450562
0.000153188336850459
5.12589411814736e-05
4.90828837659444e-05
0.000173679787544868
0.000182824721404548
6.38677956690959e-05
5.32926279677526e-05
0.000223610110986801
0.000251290644126727
6.21434683860647e-05
8.31347799704313e-05
0.000365504014093149
0.000470800908421089
9.54309114808796e-05
9.10929539873148e-05
6.14317774204131e-05
9.86674862778512e-05
0.00061917127284224
0.000757850547201106
9.41414662158726e-05
8.92584547865719e-05
0.000690257372957311
0.000667723014599754
8.33435954635213e-05
8.0757592921912e-05
0.00059147990615976
0.000678967291586456
9.23049458849534e-05
8.0898302764266e-05
0.000733074274031321
0.000959303067995001
8.14232805202322e-05
7.12079206702967e-05
0.000641360956929451
0.000650535877531074
6.57856891952684e-05
8.70968827902077e-05
0.000560944771449064
0.000786541554098923
8.61319548132637e-05
0.000110728557967717
0.00120810466655025
0.00109684342890911
0.000117005909214216
0.000139754968268842
0.00096821232967776
0.000852314581386426
0.000143588037912485
0.000119832035744806
0.000573366541091782
0.000532759784568314
0.000118059550249276
0.000108047637936386
0.000614187207110203
0.000430061255608112
0.00039474994850043
0.000431332534989468
0.000548503489550978
0.000107498414346137
0.000137662005714109
0.000817594163782594
0.000874737400609878
0.000117579581235619
0.000103910970937927
0.00086267445455773
0.000604211437034364
8.49140452639178e-05
7.76075597234682e-05
0.000430890569310043
0.000449095860159104
6.85295617365648e-05
6.1140734755022e-05
0.000429270644428704
0.000477549624963697
6.03346384307629e-05
6.90992832082262e-05
0.000494677276234124
0.000382176289631227
7.59804968694593e-05
7.48959702637964e-05
0.000342799154855549
0.000285230484181332
6.78474519359565e-05
6.82002856703183e-05
0.000317495973716534
0.000225797145093766
5.86814848095836e-05
5.42286555061841e-05
4.35045483715346e-05
6.05031988019808e-05
0.000221322403288099
0.000171960771729702
5.49427238150362e-05
4.79373913409281e-05
0.000186140438960081
0.000182245821806655
4.86326538667188e-05
3.63516993392369e-05
0.000100608650189302
0.000113238007133691
4.83934060460839e-05
4.91551002535022e-05
0.000106670805233379
9.5984652844251e-05
5.13938395896419e-05
4.53333129494941e-05
8.07924893055324e-05
7.85407463236386e-05
4.09405035946255e-05
3.82035418322155e-05
8.1624154936934e-05
7.83933634229525e-05
3.84825348605887e-05
3.71348187164293e-05
6.93202101924325e-05
5.43274540188725e-05
3.54224115533306e-05
3.52372689202827e-05
4.48405431650938e-05
3.83305022701754e-05
3.31881045221294e-05
3.14770808155344e-05
3.4766534996357e-05
3.26813822839197e-05
2.94597755031042e-05
2.88881715962536e-05
3.15503175294674e-05
3.05471926727114e-05
2.74138253914316e-05
2.7452998882561e-05
3.01652971542174e-05
2.97000839897925e-05
2.62909417490754e-05
2.65954025901171e-05
2.97465663251049e-05
2.93355574679936e-05
2.65016590820241e-05
2.62961853207331e-05
2.88945077688105e-05
2.87228329318514e-05
2.73279105437245e-05
2.7573947032554e-05
2.95553505562695e-05
2.95166482652894e-05
2.73316617403696e-05
2.71094734835921e-05
2.88295837463319e-05
2.88829909700122e-05
2.70579663184662e-05
2.71120933428958e-05
2.92871696111343e-05
2.95363479427209e-05
2.63595330263621e-05
2.69727219507463e-05
2.90037432565022e-05
2.94267988801675e-05
2.75324351808129e-05
2.73345863737311e-05
2.98309723776186e-05
3.06104755092495e-05
2.83808199318392e-05
2.82342218002011e-05
3.09694968994852e-05
3.19479012137582e-05
2.98166099001807e-05
3.04981790274406e-05
3.3175959847059e-05
3.54341473380488e-05
3.25550296455661e-05
3.3869517385377e-05
3.90908526901968e-05
4.56744833909883e-05
3.61899381869583e-05
3.67895962839956e-05
5.55496554817179e-05
7.14923367888748e-05
3.89492438058355e-05
4.03822567621746e-05
8.0891812336077e-05
8.65539165985234e-05
3.99811665137168e-05
4.30169564694381e-05
7.97834719892629e-05
8.46807110452844e-05
4.58556453317842e-05
5.23053300231859e-05
0.000106613569290659
0.000117093271140242
5.31390261758118e-05
4.22837784871195e-05
9.54365248880646e-05
9.36049595155532e-05
3.26770176544301e-05
2.94032601460389e-05
0.00010302963238674
0.000101395830214616
2.5389456125128e-05
2.66219974990331e-05
0.000108480287523427
0.000112549642493062
3.14072037542283e-05
3.91515417201376e-05
0.000108506957079557
0.000100829727552882
3.72378394425219e-05
3.2509053853141e-05
8.12955039824057e-05
8.06242317952094e-05
3.74673905215286e-05
3.16334467434196e-05
8.28476330905149e-05
8.07833086866588e-05
3.20564520893334e-05
3.11960550665416e-05
6.9352831459066e-05
5.4881840375315e-05
2.92877197933341e-05
2.90065339047164e-05
4.40267871324235e-05
3.7139102723651e-05
2.67808201613281e-05
2.61608705396354e-05
3.32872357709874e-05
3.07190251503246e-05
2.43173753309733e-05
2.41777168900719e-05
2.93302103599713e-05
2.82421822889046e-05
2.26196245644963e-05
2.3016819076466e-05
2.78208889388456e-05
2.71558424716806e-05
2.20764912481732e-05
2.24405268624422e-05
2.68242140365014e-05
2.6363509677325e-05
2.20010181340005e-05
2.13899365645023e-05
2.67751864432065e-05
2.6549363446523e-05
2.19600942015011e-05
2.21033920321046e-05
2.61088751502196e-05
2.60666220485268e-05
2.21397592645547e-05
2.20445382224994e-05
2.66693536841944e-05
2.67308631151939e-05
2.22356462080868e-05
2.22920828979083e-05
2.61126004726981e-05
2.62692316322796e-05
2.14858933176323e-05
2.1580530639953e-05
2.65844924722142e-05
2.68954959139682e-05
2.16053382303718e-05
2.13302831044799e-05
2.69395594343656e-05
2.74066884453401e-05
2.24453207792724e-05
2.2085559849893e-05
2.78275626806544e-05
2.88410018737246e-05
2.34639800087506e-05
2.3575667684277e-05
3.01120694980906e-05
3.24808336337932e-05
2.54660218398086e-05
2.63413965117845e-05
3.62544160422553e-05
4.28139626812037e-05
2.82607647729304e-05
2.82240911153054e-05
5.37986932006016e-05
6.68965119250916e-05
2.98567786317727e-05
3.07865257636108e-05
7.78392617024445e-05
7.88170947287901e-05
3.02995511256963e-05
3.59602628708672e-05
8.00000735942606e-05
7.83338476285566e-05
3.24763427032644e-05
3.0610610107479e-05
8.12297777968759e-05
8.03983385253682e-05
2.63710952497237e-05
2.71211176435959e-05
6.95693758826536e-05
7.02050901324667e-05
2.65761437696938e-05
2.50100678649453e-05
5.32400150890617e-05
4.67291736617689e-05
2.52864450658798e-05
2.34739471693976e-05
3.58709685692977e-05
3.39541496560969e-05
2.32625775561953e-05
2.1281141831916e-05
2.99333961091941e-05
2.92330495924748e-05
2.16585108769642e-05
2.01204640304313e-05
2.7646120382669e-05
2.72455434654115e-05
2.08642633063264e-05
1.95601845261182e-05
2.64635378453742e-05
2.66902850169095e-05
1.99511420676204e-05
1.9954007919076e-05
2.62209820754847e-05
2.58292369596405e-05
1.98690657732651e-05
2.05944350273821e-05
2.54766131843299e-05
2.64296128463829e-05
2.04420176235897e-05
2.02911149960039e-05
2.64396772655148e-05
2.54320630298306e-05
2.05650338949959e-05
2.0494460156591e-05
2.55009110412866e-05
2.61097064043344e-05
2.02837885366226e-05
1.97277580725235e-05
2.62037206248449e-05
2.58057292612179e-05
2.03013729784399e-05
2.07894099488235e-05
2.65548667626933e-05
2.68317713943617e-05
2.02165820642841e-05