/*--------------------------------*- C++ -*----------------------------------*\
| =========                 |                                                 |
| \\      /  F ield         | OpenFOAM: The Open Source CFD Toolbox           |
|  \\    /   O peration     | Version:  2312                                  |
|   \\  /    A nd           | Website:  www.openfoam.com                      |
|    \\/     M anipulation  |                                                 |
\*---------------------------------------------------------------------------*/
FoamFile
{
    version     2.0;
    format      ascii;
    arch        "LSB;label=32;scalar=64";
    class       volScalarField;
    location    "1400";
    object      omega;
}
// * * * * * * * * * * * * * * * * * * * * * * * * * * * * * * * * * * * * * //

dimensions      [0 0 -1 0 0 0 0];

internalField   nonuniform List<scalar> 
162506
(
1.03451202563594
1.07662332623557
11.7856350768654
12.4495954493541
16.6335713905095
14.2585702910724
1.59027252000121
1.21832540794426
12.9040127581864
13.63806592122
14.1861245365668
1.10881770713525
1.1113166592348
1.01921531414839
1.00297989881967
1.00607039243816
13.0955832774006
12.3548788755091
1.02202875592368
1.46606878391472
1.6657241442755
13.3401689926395
12.7729296125971
16.5121417491499
15.9606933537221
14.2447932298956
14.3964001439561
1.00632424107368
11.814375619497
12.5091827022668
1.00241106564186
1.0002662295439
1.00199732294674
1.00002297681562
0.999894481709542
1.00379897264591
12.2940992935523
11.6840030656396
1.00902047589658
1.61901890306848
11.6729974778742
11.6196993874632
1.4710207908798
1.67965638778607
12.4313224612112
12.0560064925308
1.13996118437188
1.65959196124264
14.518125224781
17.1148223822694
12.4965709379142
12.7377027392449
17.8384607457122
14.9943021146342
1.81332615180443
1.52610698544503
13.6490022140506
13.1535638976297
1.44843068524406
2.41221523380256
13.8170719115764
12.6470113485814
1.60132859794675
1.03329005070616
1.00676622187527
13.9019360172303
13.0361243851951
11.6869158251887
12.0024580797126
1.00216328071928
1.00816423888543
1.00253207951365
1.00060265123034
1.00199223971767
1.00655251711587
1.00761023898112
1.12008340214609
1.31298961163957
1.84971893446907
11.9884519748072
11.9532604282952
1.53239956680855
1.00559837757532
1.00179032669479
11.8114411980763
11.6054414478284
13.1762210563392
13.910896786952
1.00388334944207
1.01000312346494
1.00011783358886
1.00011101238779
0.999955687321865
1.00000195670638
1.00047019249736
1.00002765977188
0.999912174921207
0.999839491718594
0.999860284549088
0.99992312393229
0.999913066747204
1.00004747347348
1.00906664001049
11.6805826023728
12.2896222739393
1.0037205266309
1.0022755261511
12.4965942633273
11.8041479584112
1.00619996514158
1.46888009250237
11.6100200477667
11.6697585499595
1.61850787605722
1.88056865291745
12.7244950177254
12.7292531650217
1.88180612022682
2.02042787967628
13.4199647132227
13.0096080113323
1.80743124117333
1.21735706028341
12.3969387484259
13.5338465689035
2.28593682538966
3.11166249552479
16.2309156289234
18.9490411717812
13.5103113495186
15.8230920876187
21.7773416387275
19.4480032312444
5.7282868050929
3.60465385921262
16.8257466701641
14.6522837194345
2.33572695711425
2.66058241563308
15.5961454176305
14.9065284798198
2.4303146621988
2.6661782511758
14.6605836036306
13.5245928897964
2.52094037493313
1.83661034346076
13.2115017402601
15.2974363874836
3.19405442727641
2.07702390460852
13.2957415129394
13.6020684991723
1.88366878726363
1.01321993169415
1.00525582371138
14.9669424021965
13.9111834933418
12.8154071480983
13.6253564106053
1.00477212545588
1.01060950166486
0.999925184922549
0.999940219058375
0.999911646154088
0.999769591794427
0.999803031238301
0.999922055124039
0.999975919000091
0.999986273065468
1.00050478128259
1.00007372325503
1.00035609565729
1.00213518434498
1.0199588873254
1.00330946148664
1.00433219043107
13.0739494170293
12.3333042340416
1.01948374941886
1.07035647370925
11.7628798377644
12.0304696414127
1.13312016083305
1.67636357903348
12.4187727018587
12.994843382339
1.80499955136224
2.01897259051134
13.4132758955622
14.6137033496285
2.73501100602122
2.74788588066928
14.635264778948
14.1965464028767
2.60862386210303
4.38031992023887
17.4532090494225
16.5670890253251
4.19650705095725
4.86903957511535
19.8262550507696
20.3775632961269
7.56519788716961
8.23107604564255
22.4226003974053
24.5387251761937
7.94556429161375
5.94798736008168
22.6293729851878
24.4155490811155
6.83576973962849
8.93987769914119
32.1975077664947
38.3473268024835
11.0840573396283
12.3820357661969
34.4617044054951
37.3121832597361
54.1381052071305
32.0018362828971
13.9694746410126
12.6385972621768
30.077151187085
28.5537077783681
12.2445484039273
11.8792508172857
29.9721527032786
40.5646536378583
29.1483713023508
27.4414240091674
9.20524858805836
23.9757825464007
32.5244532207627
28.6462788748566
19.6722192337623
7.81893374862207
24.4908025872301
20.6068651898334
6.08286617251751
4.32475331428104
18.877530396971
16.6885258936331
3.19989864233479
2.95986372144828
16.0787429812713
15.2883809311525
2.75582282824298
2.07570403177929
14.8633721122711
14.1534852989531
1.98352783042867
3.52580448714363
17.132333700883
17.1379400419325
3.48581304570961
3.09091756901681
15.3369709716365
13.2263776022425
1.69013473087435
1.32003229540762
12.4084188521747
12.4014253384714
1.32872087904733
1.01034392916233
12.8009993600912
13.6086987877591
1.00482128647687
0.999955126271294
1.00005125428179
1.0010102069343
1.00003227306029
1.00459149424519
1.0169633033996
13.869930245685
14.9182942035995
13.8559395984381
1.00534271073732
1.01138182519687
13.1299495626815
13.2725958435963
2.09852915912109
1.54314553332122
11.9440083402164
11.9906311172389
1.85635160131728
1.0079028352213
1.00225616086045
11.9725405365337
11.6715595052332
11.5794549924433
11.7742794659368
1.00203024064776
1.00591005097089
13.012523285492
1.03252487033211
1.00643525255047
13.8643168246259
14.1613283690414
1.10204446929261
1.10379127188689
13.4366362476327
12.7321862253515
1.31369727715807
2.01800087980982
12.5954319876737
16.0140905498379
13.547855043813
13.267185341584
13.7992790575532
1.16681152718474
1.15138150326072
13.1131163438091
13.4797177963359
15.410646065679
15.3805359952774
14.4627943579428
17.0622309603121
12.4681536957179
2.09642141645585
1.55147467206884
13.1431948255872
13.6570878368467
1.65305267164089
2.26258049840569
12.7038610590027
17.7920615027314
14.9512369960101
16.2934166089923
18.9427584048603
13.6840750338222
3.75513105415659
2.3633967612556
13.5186574825531
14.159672509465
2.59240352508478
4.35627362431636
17.2877625940492
17.8695764193687
4.46164018027596
4.48549827593238
17.941442402862
25.4998634362359
7.22184322543034
9.75647014157261
36.5057880109844
44.8663981163918
11.2439576864599
10.8287021896883
43.1600983346513
52.091983345094
16.2507873829865
16.1001269477927
46.9553913630186
40.6746234037297
15.540754225179
13.9854021057556
34.4361668512123
56.5132729155032
41.2215572355759
43.861765394894
54.5479480911508
36.0525826181326
15.0805117200188
12.9391264739903
34.7741660691245
32.4201007477225
12.8033125739409
12.0704382968929
33.9711874058342
32.0831955530948
10.4323130349044
8.95277929211412
26.6986635589606
23.8998277299069
6.92380084549924
6.47922339179343
23.8072466931214
21.7573963099953
5.71752154143509
3.67187183148574
17.6668650493854
16.8705684106647
2.62162962461169
2.19034295650986
15.6088459803551
19.5022687613609
3.8691917457752
3.73974771084919
18.3531720880485
18.3337645226553
3.7455366644487
2.04823011385388
14.8214522608759
14.0847839906761
1.91174331272051
1.91592755463486
14.079362704788
13.225004928168
1.69043145632605
3.10442756521201
15.3372084867084
13.5831059456223
1.91021912416798
1.25922688228151
1.00128799997162
1.0104197878772
1.01817119715315
1.00081972080572
1.00030752614231
1.00016539448902
1.30022733341234
1.11919428493072
1.35729708000061
3.2176142661757
15.2979870035017
13.2092301846937
1.8465418733601
2.52976496959905
13.5313944412927
13.8231920262594
2.43046089619144
2.47206655159468
14.9296654901089
15.6585125006892
2.76006259195258
2.55229803186054
14.730096769941
17.1685586238293
4.02696777881026
6.29873570869342
16.4061737141549
21.8708708905719
19.6319328686991
25.073344098892
28.8459067208864
20.9199094575679
8.6567893202895
8.15125488903213
21.0107204666354
19.7414950997904
4.89570339489402
5.97747442072829
22.1123564305751
24.7820746755636
8.62719107472443
8.89707274516297
23.5316481041256
26.0070190224421
10.0167369075258
29.1687033212918
33.5296849591545
43.4680118560639
32.4679435576531
13.5294392425817
32.8248509222874
34.4756044921187
14.8066123402079
15.9710384353188
39.0587090130504
39.4440888973437
57.6531751808646
41.1131802801386
17.5165830434
14.9900780986784
36.2258031626912
38.1869749239845
13.036204358376
11.8964001265128
42.5460479872157
44.1945920089681
11.7013892222371
11.3353570199569
45.0373067975889
45.3480919222002
11.2930508646902
17.4206284364582
54.1898971363821
54.0371727526399
17.2448592119105
23.3493411033939
71.4080420023315
70.0012696585132
22.344987759989
21.5130371226221
67.142734202205
62.6352482234234
20.682988254417
18.4593389300313
57.2292761487298
50.6729368816403
18.5464548193463
20.9522135257957
59.5347817838162
47.0135909759741
56.0140866246601
37.8577741514931
15.9107531607332
13.1899007869673
36.4490112858131
40.2649074857381
12.353963303561
11.2925091133032
38.4664362352756
36.0894995873445
11.1353095947894
8.26561998935317
30.44901267688
27.8445407220591
7.59306780482781
5.11682939266986
3.31857018502037
1.67697192247687
1.78025745095225
2.29301675227465
4.54839647211606
23.4465120482892
22.5422219022296
4.70014726656178
4.45784166497659
24.4092469519269
26.6804702031718
4.93950220632521
4.90121661769541
26.0805908977252
28.2894924127031
7.48796724191805
7.23714909715119
29.0031071128491
30.3148446688552
7.14968780937679
8.75551684616311
33.183837639227
30.6037141078151
9.0613284043397
7.05128114015515
27.3166877139192
4.74708798474676
9.439264409716
30.5869021965513
38.1763304683466
11.7933081005809
11.1791350955427
37.0490767805917
31.2546736923124
7.7448784532978
4.8459977081946
25.4126047605425
25.6192460220191
4.79479490990099
4.8256607276662
24.6199810788277
22.5845718585918
4.69211237741952
3.97864887346574
20.6809655603842
20.6445229179556
4.00332285712382
3.88739905086593
19.4683299771458
15.5074316305926
2.12246639815069
2.12947351200747
15.492935339012
14.8127187860454
2.05690551195476
3.76001327217424
18.3120064773828
17.1300901438369
3.5028247955421
3.5383435653271
17.1283023147698
14.1430999580011
1.99326048376352
2.67845237604346
14.6655904760036
15.281861593342
2.75806931447285
2.9422042256306
16.0348086949738
16.9463086889688
3.51370461017324
4.74529902004769
19.435370990346
21.5864638411572
6.78876307991545
10.0436416830826
28.8417712795215
31.7880064229472
13.5132425425161
15.0205209642689
40.8202520471625
43.2491700892491
16.7972589036312
16.4157632588564
42.3817877194212
47.1531379753134
20.7876281106112
20.8369356085261
49.8184922925549
47.5357655075964
18.0413163271939
19.6511787376624
52.3307899189432
61.8652138927851
85.4118892978354
76.2923368564508
27.9274237402758
30.6903207449588
78.2894052828529
71.3669392285663
28.6167047856979
23.7697510554109
68.022846565086
85.539911978068
55.5441879079651
49.1746611008816
73.4747743706273
53.4718089958296
23.5460255246609
21.6424859141616
48.6659014994853
49.2830827353316
19.1602079191172
17.6703277751755
52.2891782016664
53.3300362963455
17.7651866149373
17.5237302192719
53.8436069877526
70.4460953020147
24.2176210761116
24.3458528150854
70.8188941465757
71.128302310583
23.7029945355306
23.8440364029948
71.1739881562044
96.3632388294708
34.5813720927916
33.8802964359122
97.0487948519828
95.7654276671157
32.5664756069634
30.6834299321849
90.7236594570992
79.0961872721664
26.2236017312693
20.5291479518269
66.0004109813689
73.8014210737595
22.9464885073081
23.3491204776701
80.7365868003598
83.7866352729616
24.3302953427675
22.0939795107204
65.3061400805659
49.3644547901626
58.1641978501933
39.2758670641026
16.6796335839124
13.4823456485883
37.8997716625752
42.294962706496
12.6093048544748
11.4100828403423
40.3310752743707
34.3252114736926
9.1988212804007
8.6491022864155
32.8792983403879
5.8241975604693
4.05713667649831
3.84292663696225
4.60346831568915
2.65926454947578
2.29886895531652
2.06318184539396
2.22866551900009
1.45134102847824
1.27251597893282
2.34866759547358
17.5292901784264
16.8676871986229
2.23264213330964
2.16979110830934
16.1810366404657
16.1472515742375
2.1532448131956
3.97512238434675
20.4910547015863
19.4159801484275
3.90509097286614
3.8242350805945
19.4295302940414
15.5312518660152
2.18300983277718
2.89738799123814
17.1087324503971
18.0302860900991
4.05209499575676
6.48934096054085
23.351178081502
25.7298518473598
7.96640805588541
7.6611392029209
25.6651692312891
30.3760568252098
8.71358143426935
11.6669697869174
35.3628618343735
40.2743249398793
11.9821001677759
16.3074835756716
48.3624301400832
56.2100604822179
18.9528869687534
29.3448530183237
83.4766320449394
96.826864098384
67.1670302001381
65.9370984172835
95.6116012161197
90.460931417933
30.6103445705904
36.3416748752637
105.460855404467
106.088013666639
42.1753217113476
41.2239702445433
107.557519853685
131.39692253895
46.1216693222721
53.1632594601875
147.585727092676
142.414140999249
50.8711722698356
51.994758775632
141.386017511919
143.798435662003
52.513421011412
52.3947006664778
143.927674199694
145.019490310541
52.3342817982466
52.5712388118369
145.251520727418
145.557579667393
52.7659746247395
52.0819725363735
146.10686721818
146.240075479923
51.5418031521528
50.2764252700013
148.137862250171
151.469717154102
50.3435216738713
41.4343353054532
131.417095844224
96.5425040369589
30.6200828351227
32.1093742546678
108.313017037523
113.731852026069
33.8251983309553
36.1213362422782
120.507987409083
86.6130894702921
24.7224886036785
25.9839366288126
90.243056371888
69.9004861658992
23.1938505576304
17.3750769552484
40.7940780823378
61.4852322972524
51.7824134047924
54.4746918842484
65.6018747697812
42.8255024594012
17.8976783200771
14.288680966801
41.4655687402348
39.4151660433947
13.7620044830417
12.9691845574984
44.3947618274965
42.2871033538194
11.5910278170331
9.43655494110649
36.33324863128
36.5977535150107
10.6975533724315
10.3442204532626
33.8866753936452
5.72112816063817
6.36121922839162
4.98217909220607
2.3140264049603
2.48120339742709
2.20188880790779
4.32155975640924
24.3354899284399
23.2235144411051
4.20939253508521
4.13152150903613
21.953224112664
1.91442039294131
1.16201158759435
1.14772632039465
2.21398818232999
16.7715806854284
21.5703493904986
4.02313507555968
4.03206050038786
21.7662194734086
19.7543237981372
3.56332088289985
4.47957141934006
23.1043274059993
28.0427369690925
6.95383526843875
8.8240673745181
33.1647874899041
33.877408946681
10.5075699341592
9.04021426597395
31.3622235625221
33.1523775387329
9.31364390430867
9.79474461751684
35.5301457052694
43.0268548645203
12.5336222530414
17.3009547946277
52.3141858141995
55.2909194166452
19.3624905410928
19.5949931782077
57.3790973098021
67.0145844212033
97.1079786792826
95.2688993574391
31.6826846186864
37.9085488455425
113.882609316545
127.135002104814
48.1595398881675
53.8969417268119
146.721815372631
192.673662713514
59.6762019292647
65.892932296647
258.227670096206
295.103201161182
66.8621963035214
70.6870147691267
283.721871530619
277.2433833541
68.4139622527835
70.4942162165249
277.803650776363
276.994242290042
70.9474039762459
73.674570366125
280.321096177671
284.991892366691
72.8823186454598
72.5343777796369
286.322116124248
286.235228646301
70.9631043303469
73.747124068225
287.305740144346
289.913155496868
72.8974864984167
71.7536184629764
290.098012123565
290.149213222342
72.7021232108215
73.3879661883351
289.765801679937
289.263230606398
74.7158484463627
72.103056134059
288.06030317018
288.429958666274
72.8367873704233
72.468036934713
286.619975334095
284.162403137256
73.0876885333025
70.4421940499681
281.26039757061
282.26479607647
69.6587512985078
67.0884327977724
281.872388823145
287.209975039465
67.8254523202208
63.7578900765889
298.841957045519
259.128311139395
62.4482496818068
61.994282357062
247.734012589185
238.770681124949
66.3065900428769
64.9475209752038
232.989962865613
230.224541409735
67.3504472923605
67.0344676841031
227.438934580296
227.758169642734
69.7314387243581
68.7168608269966
228.150122615004
228.376264285657
69.6275756384707
68.446913255753
227.497024591111
227.751587266285
70.3265303019946
69.3444863083828
227.563823513854
227.72121551527
68.9181578712567
68.2731476447004
227.470122445643
227.231193073405
68.8051397274042
69.225741837108
225.632291667447
225.170662969779
67.6434963763442
69.2659285964701
225.510747783161
224.94511270132
69.0350990310026
69.8469315616405
221.688976174923
220.50163842439
67.1709233872549
67.72308989342
222.220214976694
224.421711374645
65.7296583871168
68.8754664969346
230.974073613634
242.157504583197
65.1560244554885
66.3916607689435
36.5788756333484
23.9411667764461
13.2992078959223
10.5589428292486
7.12139773648709
6.01127970422595
3.57327936248329
2.80104453611903
2.46883744612397
1.85863168570212
1.80233688879082
4.13582893300414
22.6569318067693
23.3843019429527
4.32681128571378
4.54535254861305
24.949317951868
25.118794553487
5.06190586090536
6.76700639159969
32.4938872493774
30.9133814458782
6.54160668069266
9.70640442855202
38.6438352927975
39.9234798018074
11.5086594144346
9.66683732673898
34.4531477053561
36.6067563408408
10.0070901008946
10.3536325011944
37.3057570592324
45.2935001369171
13.4491072590978
19.0724440097109
57.764277675712
62.8683992043167
21.2160960662572
34.9884821724068
75.5392777079425
105.863854741578
95.3250963696204
123.216078119321
39.7015853370314
50.107260768336
144.621215084009
191.965300887272
56.915866949981
72.4687107651361
290.988444347569
333.518804560854
73.3958520838456
73.9641926826083
314.917708552068
298.786664209379
71.3037671109494
77.1312125266957
292.086367574956
288.666773851501
77.9768596838722
82.2357438849289
294.693481310909
299.827432630094
87.019874864711
92.3364131854328
305.726890179607
309.686901749724
95.2406632089946
98.8426405294017
310.507760274422
310.965176359521
101.328777771421
108.608020110649
312.922490242283
316.483878636504
107.274271518685
106.286833672971
316.216879317737
315.781116746056
108.02827197472
106.330234398819
315.358221368498
314.062273031376
106.456390330423
99.9908564323766
312.246295769391
311.963174424769
95.2474178693311
90.9045692117462
309.696728666282
305.101409119224
87.7903900244478
83.4409529191831
297.84412376773
290.37778485891
79.0823119789736
74.3745865102046
285.149203106844
294.747035288985
72.8103229732299
67.9457776216572
311.170544893987
256.589098156782
59.2974603889053
57.6963464019976
251.845449134819
165.967599908204
44.074768625025
47.280206294741
174.478505239626
189.649771695108
50.5156880131757
53.9195588895916
212.501697040732
129.258613727697
38.3974802097739
40.6224540089034
140.928228456658
93.5873149497724
26.2735315930425
27.3256215898929
98.4964990453423
75.2073899500516
24.0911882191188
24.6068549495531
80.7117198112742
59.0912713470334
73.2861001655642
48.9250875464439
21.0572023208932
17.1512281307225
48.0450102519687
51.6552362663825
16.1185810714633
13.481572803724
48.5276794490109
44.4209131641674
11.8031292130915
9.65083907435608
38.1641444137484
38.5776982384298
10.7731177234637
12.2295169484291
45.7243334445223
43.2678315174087
12.2541953688242
11.3732503423418
42.1429841578677
33.3179083782629
7.0994942951695
7.11476038720557
34.2657746925997
28.45903562294
5.77123436306384
6.21829029904378
28.4569458143992
25.636033629117
4.48406851775714
2.57642448001329
18.8750411542297
18.1428234627836
2.48998277999666
2.50556720273743
17.9956386518366
17.3750905284261
2.34169010785967
1.27916503556338
1.47439901159187
2.00342342265481
4.31556027413265
23.798276556772
25.3019691858559
4.58839678646993
6.27797154573489
28.1431616621581
28.3050133368099
6.16217522354805
6.64573543511298
34.3885784388745
33.43147703765
6.50640802506797
10.1152973965935
43.6771973450646
41.6939645829962
9.94526293073608
11.7480782641013
43.0870835915718
45.4259067874699
11.8704998751328
10.2939077229446
38.2789979946667
38.9185531334308
10.8273145576009
14.3196555075433
47.6418618043958
62.7653322545316
20.1227492880879
22.1192872287967
71.3770451649065
90.4912530340785
125.807570409775
101.561381008313
37.2964434942666
42.8297631712085
144.562353747177
173.323057788073
54.3110028897493
63.1295515648959
237.044701037649
343.571358156643
73.6305735929011
93.4146133063453
452.264628450079
422.285958400038
96.0170461938059
106.30037074212
424.980143008471
504.378250249991
133.465598104027
169.888325225204
641.621400808436
799.858523165981
201.944446008526
215.612526566576
845.501133539816
859.958781040636
225.878833777613
240.988835625776
863.288702508381
867.249073283506
262.735271307274
284.749220320859
865.418788848109
863.864082145243
304.451674553606
318.943616719813
857.936405562771
856.351303941526
331.681235382114
340.498280032412
850.255347092847
851.149043305318
349.587099686515
354.802536229816
847.98496450234
852.157420028375
361.976403793523
369.871118491624
852.597642727884
858.37480048581
377.89019538971
376.876419814109
866.908184713623
869.877887495487
371.452546116881
368.856159678786
865.86293757088
864.081203012407
376.304868142705
380.293243357802
863.743315935099
861.79960452549
373.184973901091
371.874632497436
865.693063054992
862.322065531943
370.139975063284
369.248726988105
864.838340789844
861.378229735519
361.006645126634
352.545623931526
863.044591881727
861.102865805152
342.772294482274
332.668023194676
866.254968154402
867.369353253688
318.785219798319
303.280407292317
874.710315397734
877.180357836518
283.050579466622
262.68919332392
881.521965752777
879.520100633963
242.615625886256
228.631662857901
876.419340283464
860.232010989537
218.187297018559
203.14225370961
810.512362930195
646.141205699769
170.921161287188
136.153533183333
518.047613065208
458.914500355291
111.226343022832
93.6686969257467
458.995580974592
325.531555587553
67.2828067953039
63.2558819097169
298.84684924495
281.398395951433
61.7064745882514
58.9781999355034
265.332682145524
335.541842497159
71.2493389836233
77.9858046329412
367.131834120747
408.027067361085
84.1466006303313
100.095011098279
400.145818635126
434.916465739499
121.902525841477
161.102507539976
586.816267224472
704.621509884492
194.609977958602
207.498423735441
741.560957312788
755.923480532769
216.697286728351
224.611858388994
762.008893760851
768.15311959788
239.782777573108
255.707527200006
765.859919805097
767.777994939164
273.478663611504
287.628626694115
761.969482909734
764.116735557203
300.917218485686
310.594537109367
759.324892084606
762.998294797205
320.122190853463
327.931982695338
761.506277310173
765.52845415345
336.059596776078
336.98001494832
764.244938475287
767.16140777885
339.627753344936
340.640725025182
764.020672440358
765.976878669052
347.09679062804
343.171279042995
766.519769256708
767.184923479536
337.21512735282
339.589555866388
770.360781550616
768.565377086496
343.353869268288
344.270001426779
760.634984932229
756.151509287469
337.079977349994
329.417515294554
755.15266271219
750.970982702941
322.410794735167
317.527714029726
753.927160191842
751.09669680928
308.359015428462
300.207820426655
756.643860463471
754.962465484063
288.017716430661
274.73752539883
759.327119236279
756.919254551708
257.49262710532
239.536157496793
756.811920073398
749.506334866375
222.730808834235
213.848098394921
743.631055536873
730.238511264809
205.046292138473
192.951914420472
696.100299101114
582.138757523638
159.976566300996
118.488430285443
425.978392510808
482.760081392484
148.170270863345
174.33925704371
546.373490656893
567.387920734279
184.617719775423
192.565453562765
578.274767821153
582.313335154716
199.671170069136
212.115826350333
589.165357022907
589.37433604567
226.107379506911
237.862024413485
594.570858611795
591.820820390438
248.693037923642
258.616872828722
595.680898532622
591.104108342318
265.747853353442
274.088446501679
594.723729764489
592.395505787773
278.618732343826
284.659516791879
595.771271589371
597.168869132192
292.135196478425
298.007599544748
599.911611966583
606.496893816384
297.126871242062
295.231840544092
607.523673948538
605.283047942526
293.13193072254
296.924257445355
605.134664922977
604.520749928962
300.568155040744
295.755101543054
603.147018664573
605.336647246402
295.005718331347
291.535199123288
603.079062429291
603.352776645756
290.807977598113
283.464117551241
599.816693552387
600.90136518445
276.370405626599
268.160618165452
596.639382267256
600.647587398177
259.384791932598
248.570217531051
596.293830217217
600.418802286581
237.136563682902
224.715241748301
595.067157834458
597.147823578083
212.750485429194
201.134711032435
590.59207322184
586.301231864487
195.128366998794
186.93943313837
575.446060733174
553.55378882077
176.324763662571
149.417949048842
487.674559181706
400.183717005506
127.715483069665
99.8996704798652
355.208736080433
353.713843355075
88.4017902873146
79.0874243118617
319.187596822313
311.023765488899
82.9779403034752
90.5700570007717
321.742905322755
334.070415551918
96.724858458418
141.39226885008
426.437997435563
436.078224267898
152.715953471894
170.427337897118
438.704562806933
439.437918896359
189.411118448788
205.8172544646
439.495532573305
441.59291114779
219.076170180538
224.205686461054
443.549263979379
443.55184060435
228.481860236697
226.152474345309
444.532547026261
445.597994474646
227.009899826749
226.354185090513
439.638028937723
436.415042173036
214.402034847466
203.765785061527
435.645620111452
436.102695730909
189.469004759314
171.817823205228
434.511886904718
429.788571265923
152.695501186021
139.74212156755
420.258873768634
396.032355312435
125.664117695352
97.693354420416
351.486576879139
332.9104442818
82.6443926407711
94.6385567182483
372.404652202706
375.979429008007
87.7460249324957
84.7515797874834
403.154642910231
315.689144228322
70.6632623937085
60.0965283658904
208.494973108414
298.66402020262
70.7135107487248
79.4077153904852
365.476765441911
341.508503455917
80.2595364644393
76.0730756774752
321.629133634564
309.993483711186
75.6056278667382
83.0299896884806
313.654142381971
319.5527377655
89.0285212135476
95.2700723425249
329.365276296301
335.591195809715
103.423082061616
115.326968440368
338.837937581927
339.789508651314
125.734410330314
134.837620316737
339.142288577261
339.078642636239
141.694028971089
151.276921104705
341.215558468888
344.944710527557
151.20044957626
150.513052079986
344.506175960379
343.934314139604
152.199742401695
149.094481948542
343.543408666739
342.66631975208
146.363713744348
136.57593079981
341.491094562882
342.427504195901
125.664626540823
113.829993067928
342.467152309627
341.195520964289
103.408577604069
99.9936386836117
84.3959898475309
80.5541895585858
75.8693248178276
72.930852553218
63.0141765692537
59.6714749776042
55.5591294831482
53.4078301099112
43.9988645975907
41.9547750715609
38.139122625698
36.7237950350471
34.0678660721009
32.3810943007958
30.5862888240396
29.2862122262899
27.1768238659279
25.4695835921292
23.5524266858547
21.9155228264847
20.125028603463
18.3400913551149
16.3067712501274
14.6933856096395
10.2761579690411
11.5546684453146
9.23482860852034
5.88489298309195
2.8658416940288
2.03204844597001
1.42545032032975
1.54010420632085
1.62323587084205
2.63636097937784
18.7887474070469
20.7415975110804
3.89664132434916
6.81278551358425
28.9047706218306
37.5527326560307
10.8097876276473
8.29736355099638
36.1596983213244
36.9700759820508
7.00249987642566
6.57126512732146
35.3627209775201
47.4441508686818
10.1399496016875
10.2162872447208
45.6470670905821
47.7109368477444
11.9667653844484
11.3674278915933
40.9906148789889
42.1374244360677
12.2110824037684
15.0314834453261
51.2870408716953
67.75207246959
20.8212199661301
22.7219142443749
77.3083468753709
100.152397164833
144.75255174674
114.973396172229
39.043609460627
45.1686844739151
172.721690011948
223.783442313737
58.5474494369715
69.3301325084887
362.257119037359
552.9031051762
84.8031999649447
139.841650503847
826.320751572498
775.633803717958
141.674732799063
170.602308748537
836.448600133862
1113.41293288004
216.545982545215
295.643915779176
1600.97645977208
2127.68683381602
401.639942250718
436.695334666184
2237.53434105897
2240.68174036258
436.790581770569
444.064930683485
2196.59611415158
2125.42742440332
461.322422773837
481.337953129719
2079.9402624368
2111.00504555506
471.695783152728
442.676558797873
2160.11096523754
2194.8622585482
416.231968708636
408.65222055129
2219.69344883827
2225.90198396258
405.297287919234
409.063109569036
2231.24814299179
2233.52801845716
408.600546001268
411.193190222202
2225.961730486
2241.54051197751
417.247231452105
416.140854087426
2247.28581321641
2274.41726317343
416.524505255547
412.714518892146
2265.24281733567
2244.40482867682
413.079780820994
416.91487781556
2246.39651611002
2247.72333150309
413.799573392853
415.572811412418
2258.01571086471
2244.0569338057
415.540440618148
415.539459963947
2254.40218458826
2257.83890134135
413.952874532031
410.172950865745
2253.44906515231
2245.66740555908
412.343730387848
419.165596374158
2220.20674851813
2185.28769823995
444.729858590692
475.486588528538
2141.09820083377
2115.33343916483
485.714805995542
468.378017503072
2165.81094554378
2239.38799662222
456.219238794551
454.352224467955
2283.61194026349
2274.65062849509
454.655724303134
411.306356425543
2151.23670303305
1606.80373025611
298.027522144527
217.563795135184
1146.75921612286
907.91437637644
169.005396012594
144.427124252435
842.960719253187
524.288718005084
83.095354318538
76.7363474950479
448.751207799547
401.010239980178
74.6036338053275
69.4452235342033
353.846885000231
529.255961667191
101.340166646528
114.23265261936
620.579279150721
726.679462394319
125.626636694416
150.050167272749
765.861407961535
942.724236685296