/*--------------------------------*- C++ -*----------------------------------*\
| =========                 |                                                 |
| \\      /  F ield         | OpenFOAM: The Open Source CFD Toolbox           |
|  \\    /   O peration     | Version:  2312                                  |
|   \\  /    A nd           | Website:  www.openfoam.com                      |
|    \\/     M anipulation  |                                                 |
\*---------------------------------------------------------------------------*/
FoamFile
{
    version     2.0;
    format      ascii;
    arch        "LSB;label=32;scalar=64";
    class       volScalarField;
    location    "1400";
    object      p;
}
// * * * * * * * * * * * * * * * * * * * * * * * * * * * * * * * * * * * * * //

dimensions      [0 2 -2 0 0 0 0];

internalField   nonuniform List<scalar> 
162506
(
83410.8674260616
83411.5122080065
83411.1960297894
83404.9448161864
83399.1948675098
83381.9309705924
83401.7234980855
83401.410164841
83379.987522222
83456.3407458165
83459.6459675113
83431.040977082
83423.5581087929
83417.5593294209
83418.4134002147
83419.2262190611
83419.4100027673
83416.5082195732
83418.1243458609
83420.9841311897
83429.2624004835
83427.5886309184
83416.0671176195
83430.9622630584
83443.8924479132
83457.9669522592
83462.0800779726
83414.7253317006
83414.6034676236
83415.805083627
83415.5243108159
83414.6144501918
83414.2776537311
83413.5695415213
83413.6472060737
83414.3923892828
83414.5965178675
83414.3601736854
83414.2136393993
83413.2857534133
83413.3054000174
83412.1382196554
83412.0827090186
83410.8124938556
83411.7189155107
83410.657612193
83409.239492074
83407.0900050822
83395.396809167
83403.1229647124
83409.0461466117
83412.7527395816
83410.0000464319
83407.8769852926
83412.2771459532
83409.8922696703
83407.2452420004
83395.8631190278
83405.0709150686
83407.5397320529
83407.2229893177
83398.6192391197
83405.0535655524
83414.1395465704
83420.960104293
83433.6706562947
83414.4856717634
83408.8512996907
83421.802427084
83414.0759924312
83411.2201504969
83412.9040276327
83414.1748919929
83416.8127255322
83414.720341609
83409.3219652729
83407.5367471982
83409.4863381616
83409.2038978539
83409.1778392104
83407.4221146812
83409.4633009864
83409.4585342073
83411.2402587311
83415.9395808563
83405.8091393279
83405.7327885549
83412.8485993064
83409.81498273
83408.081554423
83409.3813329597
83409.875422539
83410.9505695711
83410.5774622883
83412.2864802471
83412.6998989608
83412.3078927614
83412.1887112941
83412.5328098772
83412.6373646703
83413.9729790604
83413.914244677
83414.5420586678
83414.6760509596
83414.8891895497
83414.6841948765
83416.3740554026
83416.6341838695
83415.5091439148
83415.6112453137
83413.1915197578
83413.2154871328
83413.6885459528
83413.6547132792
83413.5463213276
83414.0432116767
83413.540399165
83413.0299554027
83414.7613413692
83415.2251254622
83413.182548786
83412.6740325522
83410.9371831343
83411.987040142
83412.6643789327
83411.9706741458
83411.8952720613
83409.6580993296
83410.4515386095
83412.3240131168
83411.3241920785
83409.7764100636
83413.9117421597
83409.931361838
83405.2071880198
83405.0707671871
83406.5215288154
83408.7930263935
83407.5934614011
83406.4761828107
83409.7470672722
83409.5627375193
83408.8501696278
83408.0330399597
83408.2653541189
83409.064254525
83409.3394594365
83409.1688875054
83409.9561675181
83409.9420599189
83409.3136496365
83408.230754341
83409.351525334
83409.4548100759
83406.7866985424
83408.194482227
83409.2106053363
83402.9433072
83405.3205307336
83408.996989772
83408.3108036448
83407.7881252303
83409.4889654945
83409.5620645303
83410.884211203
83410.7259723536
83411.0167374753
83411.1708910839
83411.8716792979
83411.5173638261
83413.3201778538
83413.6838540589
83415.5225035448
83415.2410744371
83418.9319065677
83419.7723566904
83420.4985687949
83420.700222942
83417.8541952128
83419.2289640804
83412.8343006934
83412.5259874775
83412.7576991637
83411.3688688879
83412.4034427351
83413.2612875932
83415.286139648
83414.7188781423
83415.4720380068
83415.9457814816
83419.5133889842
83419.8008019866
83418.6305878344
83418.4850143487
83415.9788612057
83415.7869628463
83420.5774091507
83420.5954485821
83414.0336014819
83413.35818408
83411.5508084106
83412.9306800889
83409.5927702812
83407.933076051
83409.5226959643
83412.0857776286
83414.6979800408
83413.6544404873
83416.9166671598
83418.8239813502
83428.5286121743
83427.9478418077
83428.1494048269
83428.7411185146
83432.7846963218
83432.6050810869
83418.3376015366
83419.5226855744
83417.0762874467
83416.8997952169
83419.2798527104
83415.9783000144
83416.354162901
83430.7963553127
83400.9660467091
83411.8273826836
83411.2726011553
83413.3990386716
83403.4992960405
83396.7334098877
83379.8279591392
83404.0741226995
83407.6705090291
83395.9905264003
83400.5777583564
83407.1178172121
83402.04226297
83387.4558844443
83375.1553445343
83395.2501137708
83398.9531177296
83398.3086020602
83403.4735245368
83404.6785785391
83403.3120185317
83401.7581729936
83405.7259616196
83406.7504516391
83406.3642795039
83406.1074531948
83408.9445206781
83408.5741131124
83408.6848194647
83408.9873925377
83409.4132657392
83408.8218338535
83410.4310754074
83411.4340351363
83410.8358819095
83410.3208155774
83409.6490214668
83409.1880073368
83409.9006832357
83410.0520143035
83407.8114111241
83404.7926942378
83408.7965866822
83408.3414248548
83409.7441207972
83409.6561160995
83409.3449909839
83409.7481459144
83408.5453964493
83407.166165726
83402.802504689
83409.4434041389
83414.5150925123
83410.8958540412
83409.2471015318
83407.3478522565
83409.7871145058
83410.6072561756
83410.7112123634
83408.4737787367
83410.3314121493
83410.6831463932
83412.9392371977
83415.8197168447
83424.4099905221
83411.3827514895
83407.5876841779
83417.8954910074
83412.7161828667
83410.8354857793
83416.4213885647
83415.8852183754
83422.8292628048
83436.200142471
83462.2172614676
83433.0349408504
83425.3721478349
83457.7206071162
83381.233658208
83403.5294560429
83404.005537993
83407.4186621303
83402.412001843
83384.1452428243
83459.1417548108
83458.2810843609
83431.1848831623
83422.3791698026
83417.8960058311
83429.099473284
83444.4057694137
83432.333577268
83399.1633645771
83405.9388511577
83411.3600966617
83409.5386097892
83407.4984790601
83398.7110113746
83410.6643943372
83413.15783115
83415.1270902856
83415.3830152015
83412.6277582168
83411.3394873131
83414.6963031011
83414.9032970687
83416.6837159135
83416.4063406788
83416.2579465948
83416.7112125524
83418.7203663439
83418.8848210045
83426.7577346806
83426.3726960144
83429.0295569387
83429.3905635036
83426.8088006418
83426.4636795673
83441.3837048623
83441.7441563856
83459.5867705849
83459.5430486328
83477.3628156447
83476.9699191866
83452.4249919781
83453.0164790201
83462.8298590468
83462.2126581783
83435.2779458359
83437.1292467931
83419.5621259375
83418.722837393
83414.7393513058
83426.34350522
83418.3638999168
83414.0254735057
83394.1026444592
83395.5659320569
83398.2776967461
83394.2276756022
83395.4134040657
83407.4920076173
83440.5488465235
83419.4046732365
83423.8475917822
83449.2931656311
83436.8587432391
83419.4362813954
83402.2543370035
83390.4764596133
83434.8393741099
83407.3880145065
83394.6810939546
83395.2013114561
83382.8159275795
83387.1630928663
83396.0378210159
83393.1186810508
83393.32401364
83395.5043002465
83402.5289775117
83401.4528778531
83400.8510464536
83401.202743452
83405.6893888796
83405.6428461058
83405.5993665017
83405.5529724974
83405.941967078
83405.6288488211
83408.9761588991
83408.8192342945
83409.1133191681
83409.1784086461
83411.8245516661
83410.8203740854
83411.4570824513
83412.7395035948
83411.0502609859
83410.4735919495
83410.1805102962
83410.0607841746
83410.3087540682
83410.6968363066
83410.5445623892
83410.1391906229
83410.6405588072
83410.6849047817
83410.6552475801
83410.7762142786
83411.1412477012
83410.9249884319
83410.7244932052
83410.9355108941
83411.1355346094
83410.0000473343
83409.4579465912
83409.78354818
83412.8129993943
83413.2244392621
83411.4714047313
83412.2851314716
83413.6361526964
83411.3139344329
83412.3289914098
83412.9119025036
83417.0244005195
83418.0257523228
83416.4972355189
83420.4949832018
83399.0965055547
83410.8164429283
83417.3567597401
83413.2622253382
83419.4936380198
83421.319967276
83424.0304280428
83422.0802228537
83429.1398547942
83430.6099342043
83429.4678826603
83429.1664689881
83423.4494216142
83425.587365685
83422.1823767588
83420.3186944189
83394.193180224
83409.7581441371
83421.2779590804
83433.8704210701
83431.7848977447
83412.0616071614
83417.9912517972
83436.3035007709
83443.7948626652
83449.727400138
83435.2950013283
83438.3153500083
83444.7434293811
83441.3317587004
83445.3051745812
83446.8839295409
83464.4055118753
83463.8064864215
83485.6219409088
83486.0815174283
83504.0458463398
83503.7317047732
83508.2230659992
83508.5507684514
83498.0693592216
83497.6499600998
83537.4664553588
83535.4195566444
83500.6385065983
83501.2051567358
83505.9372446178
83506.6684754059
83480.6576524351
83479.3597067808
83451.9337973237
83453.4254071173
83438.0149419049
83436.8335246454
83418.2765190725
83417.8351575897
83403.7598478476
83404.0180459669
83373.0301206992
83372.835962337
83364.3918409099
83365.6357784478
83364.6266363407
83363.7811245936
83362.9474730756
83366.0435065141
83364.255812899
83362.1955385816
83359.3287628822
83357.727816464
83389.1597365771
83388.1812657985
83380.3279655235
83375.7053793185
83405.7875531361
83403.5381017347
83406.0876038151
83397.5484355426
83404.6936366163
83387.9318122755
83366.5535360808
83370.1364535524
83354.5489310289
83392.1985718264
83366.1552785949
83356.3345498761
83425.8805558753
83420.8280334411
83365.4095817706
83370.8170090069
83393.8089965446
83393.5332833239
83369.7065113344
83362.4909817651
83407.8310038994
83380.8111794881
83351.42155035
83359.5147254125
83383.1496464577
83374.6522611781
83367.4515116872
83368.7198953961
83352.7008888342
83367.7244330065
83360.988239067
83354.4578685514
83353.2924893625
83340.4356154874
83338.7337341972
83349.3249061141
83323.8313956579
83330.6557427866
83313.1205924715
83292.9630901239
83318.4324224119
83320.0021212799
83358.5137539111
83358.4507951829
83383.5442090603
83381.8015791876
83393.8264187772
83393.4128953872
83392.7877873427
83393.3196955238
83400.939498484
83400.6309162891
83400.8935769134
83401.5707058959
83402.2861497773
83401.525924632
83406.0364528401
83406.420744496
83406.9509952526
83406.9333502323
83410.0585471305
83409.6676571381
83410.2060956437
83410.3896503171
83411.3760234048
83410.8662953104
83411.7972914524
83411.1344656615
83410.0327954352
83410.9788019588
83409.2668368736
83408.2215531546
83410.7467955779
83411.5138873182
83408.4835632923
83407.8340699704
83385.4151189129
83407.1218626657
83422.1952093321
83407.1269880292
83401.1242070404
83427.0854822368
83454.1771915536
83476.5523643659
83477.9361943969
83455.650964316
83452.6039769047
83475.4333213634
83468.117778875
83448.6359037997
83447.7364531287
83463.9120258597
83461.8671863682
83444.5177403928
83430.6648598244
83442.2180542688
83432.6552717084
83433.1584123332
83430.7260688776
83430.7900049008
83433.6017391171
83431.827589255
83440.6509206993
83441.4811541243
83444.2333705923
83442.0191672781
83449.6106157554
83459.2430750785
83458.2672666906
83454.8112697844
83451.146213598
83449.9745852783
83454.9099162333
83456.3955616322
83483.1552122906
83480.9417545919
83515.6456572281
83515.2919841677
83545.9706047775
83548.1252837335
83556.780449942
83553.9897512055
83611.2009902089
83612.5327160533
83597.1426973926
83596.1811745783
83572.2133618334
83572.967854162
83544.8586938095
83544.9441372363
83560.7972655051
83559.8087970358
83513.2085494332
83513.9885047437
83475.092342449
83473.7999048178
83444.4855813654
83444.1974976261
83424.5858889063
83425.0524074186
83408.8535898366
83408.8687822248
83391.4315217166
83391.4513329715
83370.9052557845
83370.6160815888
83344.5880078596
83344.7410289742
83334.3769802233
83333.9785757368
83333.4722985366
83334.882296671
83334.1631128341
83333.3391729269
83334.0845310586
83336.473411932
83337.4943391373
83335.8941458162
83336.9302340929
83336.6958610553
83334.439104098
83338.2663363994
83357.8048204536
83350.5359974216
83363.4764663719
83368.1927959403
83378.1978453652
83372.0570655276
83363.9440465633
83352.981962993
83366.1614479528
83379.4326568745
83380.0470992578
83365.5602560745
83360.0189573167
83358.7712392395
83379.6308756908
83381.2256475852
83394.1817782474
83392.9405881528
83393.7324856653
83395.1723610121
83395.7925155577
83394.901949226
83402.4957431636
83402.8859649724
83404.209208168
83403.8261822297
83406.310338888
83406.964083245
83401.7278826278
83400.3671666611
83402.9367750406
83404.5063078025
83395.9819799001
83388.7166763878
83396.9482482017
83405.5254340383
83423.7462106443
83446.3399177621
83418.7825144555
83424.6802357055
83444.4708620585
83457.8330902624
83421.5950380748
83417.0581599334
83423.5645227046
83433.4478820899
83416.373459086
83417.4550513745
83414.4413848569
83414.2711042209
83413.9962521849
83412.8458312716
83394.6179569727
83395.4521213622
83396.5667826279
83396.7723194628
83405.9064537165
83405.0835691879
83414.5995770073
83414.9962441758
83432.0883973286
83431.5215585157
83455.1065557428
83456.0014025723
83494.5769685646
83495.5962654498
83552.0021037286
83549.7881252888
83610.1200018334
83610.413840485
83670.4966402771
83671.9378976211
83709.670016533
83706.6715022805
83725.6379472587
83728.7591934453
83722.1185518374
83719.1762583475
83684.99030058
83687.5838222986
83638.195239721
83637.8044462216
83571.4104953914
83569.8320828505
83510.2898821093
83512.1777448538
83460.4980146125
83460.4943446099
83426.9157168849
83426.0496234511
83405.6312199363
83406.5397962605
83381.795255381
83381.0929386502
83347.3584438049
83347.5246277228
83310.7417537522
83311.6287068057
83315.975790297
83315.7993253621
83290.6095316928
83290.2096403686
83293.7378464172
83294.5207507986
83303.2688206855
83307.1685977716
83306.3986845538
83302.5538645579
83276.4431063961
83282.2564691508
83284.9682482603
83278.4575247274
83282.9836854741
83289.1019771143
83310.7633789657
83306.5288933246
83310.4625395097
83314.4638096795
83319.2191993373
83314.2997205
83317.1066217873
83326.9112768441
83325.4991917285
83316.6022446696
83338.1816806253
83338.2911619389
83334.1782083767
83336.9308087425
83334.3129108783
83330.1879225999
83320.9973031586
83322.6758658209
83325.2648453616
83326.845462531
83357.9125142478
83358.1275308698
83380.0749111867
83379.5622212171
83384.3524274591
83387.4791642414
83389.6675542211
83382.48601946
83380.5936824825
83381.7785144184
83382.8937534264
83384.7977225665
83383.5569273787
83388.1701720467
83391.4735813565
83372.3607958977
83374.4346284097
83388.6019041757
83384.4913424678
83389.4806699999
83391.6096421689
83398.6594065213
83393.2154088287
83399.5440121893
83399.3849118073
83404.1747729183
83407.229969379
83379.0566043063
83383.8667555131
83384.6480685149
83381.2978546612
83381.5689301758
83384.0573389686
83399.7091155678
83397.9290983264
83376.5062900191
83372.125239811
83373.4988361934
83374.2489702951
83374.5825318337
83374.1129771365
83381.4414610459
83381.2108253963
83387.6108783648
83388.3144100513
83401.5296641279
83401.1497468206
83426.1291377259
83425.8506207102
83444.3196896583
83440.8940096452
83448.9278556012
83451.9208986543
83476.845727392
83475.4255113016
83504.5047447192
83505.8565866518
83540.063936582
83539.1306006951
83584.1756630131
83585.3568833353
83629.3623228293
83628.6845033056
83670.5916959735
83671.8943702094
83709.1248206999
83708.2259122937
83738.7381076483
83739.959774165
83756.6715473432
83756.596796347
83769.5733257309
83769.6925076377
83776.4333819315
83775.999138549
83770.6410557891
83771.0647063329
83755.2653857173
83754.6056254624
83731.8754437155
83732.2908128712
83704.5834972389
83703.3884351333
83664.5224174667
83665.2301218591
83621.2439959396
83620.108583585
83574.4689837204
83575.5942030507
83532.480453553
83531.5280632178
83491.2500488856
83492.0828396588
83462.4146583359
83461.0816129731
83439.0953171372
83440.2189274434
83418.6785337029
83416.3832221861
83408.2933274184
83411.1425338665
83418.146314662
83416.7009205967
83456.5698764945
83456.5181208606
83475.8689819115
83475.9439168221
83510.4495807752
83510.0438343531
83541.4443646445
83542.2996755876
83586.7622142598
83587.1297465726
83621.0329440947
83621.712747758
83668.0815518414
83668.4419148699
83695.6095266372
83695.2322731851
83721.1344200144
83722.7210669162
83739.9328777821
83739.4510799551
83758.8015573894
83760.6020633766
83764.2538578044
83762.7935472146
83751.9200493888
83753.199937909
83743.4216918569
83740.9347683349
83727.97763353
83728.6125737421
83707.4127354789
83706.6896415615
83666.315194315
83665.7482428471
83635.0573911811
83634.9871922529
83590.7284236372
83589.7549860727
83556.2113569411
83556.6535367971
83517.489256448
83517.7068500641
83492.9957045642
83492.327578803
83449.412023766
83452.3147673994
83450.5588352174
83454.9862048247
83452.5490096525
83451.2181128105
83446.1273608717
83432.0399621611
83410.8308633636
83386.560340166
83371.7388495232
83369.1856167413
83377.7321496696
83366.3976765482
83361.5219185412
83360.9810740309
83363.4665550689
83363.6564134406
83324.0949658105
83326.5817201451
83324.3784893815
83323.0323137656
83333.7203094702
83328.2210226262
83369.4037387408
83363.6305444432
83367.8545391101
83372.4334690902
83373.6962490886
83369.7290239563
83374.617650373
83379.9976723433
83340.8013354141
83336.706541942
83338.085932977
83342.7751665201
83342.4907441595
83339.0961077958
83334.4073152831
83336.7748380636
83354.8988756475
83350.4077110249
83347.4030537763
83349.1474227817
83348.3570484773
83347.0455804315
83350.6645290776
83350.8028550844
83352.4267541903
83351.2176770417
83357.1640618151
83358.2408365327
83365.0593101286
83361.807707007
83364.7091244767
83367.4972032526
83381.8709493869
83381.2120509626
83397.5458587817
83397.3294056549
83417.4350178652
83417.1734668987
83444.9119796042
83446.4539447561
83485.1437704322
83483.3590508161
83537.6808102941
83540.8886984201
83598.004661438
83593.9018346101
83647.6323239223
83652.6987548104
83695.2370096976
83689.751324857
83724.4421921685
83730.1529709678
83749.7972074032
83743.9190006628
83757.4584355324
83763.240406092
83766.372205665
83760.7015734762
83755.2208585435
83760.8221175379
83748.5342793454
83742.8518082745
83717.3208872933
83723.1631877678
83690.1442028977
83684.5873432535
83637.6579229353
83642.464460872
83587.7632620667
83583.8724111146
83524.9534745387
83527.4403588366
83474.9552698528
83473.3535628664
83431.7964262297
83432.461630496
83405.8666165909
83405.3184717053
83387.5402241436
83387.6092275892
83375.4538526545
83375.3615827803
83369.1510221254
83370.9389903639
83398.6683251661
83395.5799595667
83394.7862662669
83396.3431595772
83348.9808615345
83347.8014547266
83298.969922096
83296.9926385145
83248.391958599
83252.02713204
83277.1110438143
83275.6849333785
83248.8102730499
83249.8665832636
83265.4964503686
83266.1883432347
83252.4179252215
83250.6315555843
83262.8197115963
83264.4434991286
83249.8486811259
83248.0930748576
83260.5797514757
83266.1393273685
83269.7293870419
83263.166080277
83267.8163760896
83274.9295131145
83278.7587981415
83273.1796244263
83275.1690085957
83276.9270196759
83295.1379862457
83290.3625899766
83292.2888271204
83299.4870689772
83299.2177532431
83294.2042423272
83294.6444161424
83295.5054677996
83315.6057202184
83313.3694336841
83311.4985198981
83309.3175500577
83305.2383026467
83312.1597932016
83297.0486324897
83287.792161022
83287.4432583522
83291.1184098342
83295.3707380098
83299.0264910971
83296.1101707034
83294.0390657375
83289.8054417969
83293.7868501277
83327.6685024843
83326.1232846105
83326.758850517
83328.3761828723
83359.8898530605
83361.5605934753
83368.558641738
83322.6170540494
83322.2066675924
83326.0236009222
83327.9311639479
83290.7653309222
83287.5731516087
83284.1028671526
83287.5769043217
83278.5014532308
83276.2139097815
83281.947504081
83276.9405313074
83314.7255237732
83306.5000556102
83307.6029452218
83311.5064261577
83334.0673374518
83334.6693579461
83335.2350991609
83338.0069853587
83306.1322723644
83303.4755746948
83298.446364513
83302.4544736016
83298.5740047857
83293.1645800573
83290.6619326343
83295.3491995077
83287.0507248109
83282.6568435969
83293.2295787312
83300.1006388133
83291.4356771115
83289.6539887087
83287.3000348695
83287.6305225452
83281.192793255
83281.4451103508
83271.9321080793
83271.6373672878
83256.833000215
83258.3167770599
83256.0396712293
83255.6885634527
83243.1070233289
83244.3172923189
83228.6694841971
83228.4162945175
83203.2387844774
83204.4693213268
83180.7074595265
83179.1567115726
83170.5394862637
83170.8386551434
83155.8680648293
83153.5788300727
83137.9195294883
83140.4992997
83132.8717586703
83128.8898475735
83129.9594071732
83133.9068956477
83136.6418518966
83131.6686815265
83134.4857290182
83139.7364412661
83142.2444640121
83136.2760931519
83134.6151106858
83141.0094251388
83139.6918455917
83133.0665006145
83127.3176355874
83134.4470627805
83130.5382122226
83123.2505246305
83115.8854218384
83123.3894243358
83120.6115014047
83112.7881374048
83106.4349778647
83114.1829731295
83111.4526313976
83103.5627302357
83098.7199238577
83106.3762133808
83105.8501713904
83097.7427992189
83095.2548535941
83103.3689770861
83102.4839079366
83094.7444540318
83097.0696145728
83104.8912370802
83106.1446168012
83098.0889129896
83102.4173166422
83110.4163760058
83111.8098557017
83104.1876774897
83110.1686259006
83118.0417985918
83120.8184379851
83113.3082668355
83119.3185867588
83126.6739812929
83128.8118906232
83121.711467141
83126.1082407667
83132.7268857122
83133.0395223118
83126.7413297394
83127.0023738037
83132.9316750414
83129.5314911472
83124.2487415356
83121.2156799114
83126.1893786045
83123.1799840817
83119.1534101612
83117.8864512782
83121.9547191633
83131.5919180008
83128.9752476434
83146.7312887573
83148.9929809257
83166.1472332457
83165.9987897474
83176.5161674799
83178.0051139613
83207.0840281551
83206.4001642688
83225.6247962594
83228.1266772375
83246.2304080862
83244.0400129186
83273.2711475493
83274.7310963554
83308.8173777604
83308.0176898442
83340.1536836263
83339.8293506197
83342.1690106718
83341.8775774084
83304.0831293715
83304.6628557729
83265.7049930058
83264.1194755778
83254.0527221418
83254.7001821753
83242.5149337707
83240.9591337672
83199.6220592087
83198.1045570568
83192.535125885
83192.6034576895
83182.2537581621
83183.2663059662
83182.5535929609
83180.9359958292
83190.5205326226
83191.6821185293
83205.4536356402
83204.8242966039
83215.9285384755
83217.3599947894
83229.8105449718
83228.3959133035
83234.9232435558
83237.4873250504
83244.8426428532
83242.4165637006
83244.3717624906
83247.7733919651
83252.6296324663
83249.4422329757
83248.1978897879
83251.51559051
83252.6300540574
83249.0543534901
83247.3698452159
83249.5798906549
83254.3331323897
83251.215263926
83249.5245834465
83253.1553212138
83249.6221439097
83246.7810149542
83245.6972694
83248.2449651403
83253.7163108211
83250.1464802042
83251.7409602455
83255.0311645231
83249.8951410131
83247.6785446802
83249.6471932834
83252.7467595692
83254.5871401092
83251.5516805843
83254.3182232378
83257.7169149536
83254.0180289717
83250.9434103905
83252.7102911305
83255.7895473193
83254.3887086257
83250.8835749126
83250.5380897254
83253.092288973
83246.565930612
83243.7218437886
83238.3277929217
83239.9666434253
83227.9414116166
83226.3340730353
83215.7734151154
83216.4911614352
83203.5843148532
83202.2681628869
83192.9374835008
83194.0817155711
83192.8895479103
83192.350645853
83200.6090792517
83200.4661157594
83204.8525269123
83206.2215223949
83247.4203249092
83248.8293300607
83250.946378729
83249.2506392572
83256.2176645025
83256.8779182082
83259.766104615
83256.8586709617
83267.7018227726
83268.7958225319
83286.8383823701
83283.6413427136
83307.9507746779
83307.8853092697
83328.7924343555
83326.409783635
83349.0150614036
83348.7323859717
83364.5687992619
83362.1802487272
83376.8516426508
83377.6000576066
83386.6323354381
83383.9399305835
83389.7345336993
83391.6036919978
83397.1258417179
83394.512622644
83404.1482835712
83406.8720417542
83408.0024350623
83404.9314863188
83401.1706555654
83404.7125393423
83405.7757268595
83402.347583025
83413.255518544
83417.1084984545
83416.8129499572
83412.5473864526
83401.2498784053
83405.0804442743
83404.6390333189
83400.8670282137
83408.674438458
83413.0237129761
83411.0525682495
83407.7203250313
83397.916200069
83400.456392218
83397.8580958647
83394.7432570589
83392.0421489949
83394.7533681979
83389.7898701326
83388.1316257377
83376.1556071795
83378.9726150139
83367.6901869489
83366.9803047406
83352.082228469
83354.4096935754
83338.0113373603
83338.2934288672
83316.1414905629
83318.2856669624
83296.5579643784
83296.6345601143
83270.5311529868
83273.8934543888
83256.8391939377
83255.2765186413
83246.0993282314
83249.13497712
83247.2536270559
83246.5910967798
83241.5635122813
83243.2785752355
83309.8769018364
83307.2016952391
83303.1511629532
83304.5479961515
83303.5977603968
83303.2193658584
83348.6774405717
83348.8881127722
83359.129898329
83358.4164677944
83377.8381751441
83379.0473818774
83416.5528339142
83415.8448323885
83333.4984314731
83336.9785467742
83386.6490340172
83383.5047696703
83444.4294302349
83446.4980187808
83496.0929239254
83494.1505443385
83531.6276250496
83533.9428880892
83557.1760872431
83554.6179042652
83571.7499478034
83574.8898217744
83580.2056107779
83577.5683855459
83580.8580938448
83583.582483016
83583.2625523742
83580.4070919871
83572.1933446003
83574.6513767471
83564.1518054898
83561.3871490926
83537.5170490391
83539.8566319152
83506.6065656389
83504.5928228819
83456.0145264122
83458.1011475722
83400.0526104403
83397.0684533388
83345.5581016453
83349.1251336112
83321.3949180296
83318.7555661242
83314.5544453518
83315.6701148868
83309.0788463528
83308.8347469673
83254.4865952339
83255.6312833503
83267.5174950985
83267.2165561823
83276.3504627367
83277.2348174882
83283.4691824788
83283.2939831267
83305.2808932011
83304.8490425476
83312.902452413
83313.8607532885
83310.7308871851
83310.8920515342
83309.213903602
83309.3377046383
83349.758115963
83348.7447692441
83357.7034667739
83357.7458089493
83370.3539022301
83370.7465437328
83391.7982097102
83391.005214805
83428.3058615764
83428.8079324546
83483.3683204769
83484.4868169894
83545.9788415132
83543.3964963114
83598.4321674213
83601.779909297
83643.1365170735
83639.3421004262
83671.1300809391
83675.054521394
83692.124371011
83688.0920640248
83700.2028358638
83704.070537362
83706.180173185
83702.3496727902
83697.4420668058
83701.2665317974
83691.1194770889
83687.2563422249
83663.9357462157
83667.969155433
83637.2148267314
83633.481576848
83587.6906523126
83591.1143130221
83534.4331223915
83532.0694921151
83469.8398265746
83470.4662471759
83477.124725059
83485.0555934616
83495.5113722427
83511.616931136
83522.5663230111
83516.0065580331
83502.8455992506
83492.5687033565
83477.9817518576
83464.9374401824
83455.8349690662
83447.7304700716
83445.4026914411
83443.5127996929
83446.6510974746
83448.3879741543
83455.528265087
83463.9250917857
83472.4574014404
83478.8741631255
83477.6591130377
83470.5086159114
83447.5903314688
83407.3739321265
83377.5670887527
83356.9553514353
83270.9287397254
83269.0925841889
83267.4073449741
83324.3399472503
83313.6603046657
83321.946257925
83275.4984177662
83270.838903545
83287.6466896552
83292.4678806522
83273.113620708
83270.8794107896
83271.5815041798
83273.0778580431
83261.0229810242
83265.8993956092
83256.7181149282
83236.4983471434
83242.9433884474
83256.9416872421
83266.2030028753
83274.7621238352
83269.6027276444
83266.658102045
83281.7739733955
83280.9153362714
83279.1146034708
83277.0688991845
83269.5248465373
83272.8222869628
83264.6083940062
83259.8814012832
83253.2859190988
83258.0840927295
83248.9331452629
83244.9596882792
83248.5157430392
83256.1712612993
83247.3300233409
83244.12506991
83241.2844913818
83243.5378853676
83233.2084677938
83232.1401846219
83221.8699210264
83222.0588613353
83201.0507406741
83201.9352878638
83187.7201095682
83188.6263913117
83169.7546388887
83170.6925158345
83153.691855434
83154.1501568296
83129.1232747056
83128.8642070474
83101.6071802878
83102.5324650618
83090.1860994777
83089.8003569298
83085.790308725
83084.9127213837
83087.3164501607
83088.9315283708
83124.7843374693
83123.5144407125
83228.418829447
83229.5465017071
83370.4710679568
83373.5329935686
83435.2221278336
83431.6528820345
83380.7293889302
83380.6989427551
83248.9176534139
83248.1763807066
83145.0201287172
83146.2516581129
83071.1248169516
83070.603041056
83015.7746859051
83015.9387675356
82974.366146364
82974.3155679346
82944.9861685629
82944.994222961
82921.0491713225
82921.1441883878
82905.8979730402
82905.6976176784
82892.9582937412
82893.1443037697
82886.2891996378
82886.0980977503
82881.7716600231
82882.0154139563
82881.8323779934
82881.5906456293
82885.8822918455
82886.0939269827
82892.3037147087
82892.0981391229
82904.6843302664
82904.8528333066
82919.6281564609
82919.4896031023
82942.6809135269
82942.7726522052
82971.629745731
82971.6621274356
83012.4768017156
83012.1501598782
83066.7992580216
83067.5160560922
83143.094434324
83141.790042115
83246.1338113971
83247.030537836
83377.6886984234
83378.0265967997
83423.0959980109
83426.500300855
83358.6664424849
83356.166942304
83215.3287529877
83213.7252588493
83113.7935765449
83115.6846724608
83085.6762475155
83084.011365663
83083.5661353321
83084.6398721088
83089.6420437131
83090.1325537441
83102.0056698734
83101.1990856546
83135.3293486283
83136.0203872498
83153.8218198817
83155.3432657397
83178.2075170606
83179.1792353369
83183.1868901465
83183.4380797795
83199.9953581185
83199.4845854734
83215.4032628016
83216.4226359899
83197.6895801508
83195.242263519
83174.2900777626
83176.745060057
83163.2220862902
83160.8910736297
83142.1605795539
83142.1668889802
83109.2340036305
83109.2209444163
83095.2226590164