/*--------------------------------*- C++ -*----------------------------------*\
| =========                 |                                                 |
| \\      /  F ield         | OpenFOAM: The Open Source CFD Toolbox           |
|  \\    /   O peration     | Version:  2312                                  |
|   \\  /    A nd           | Website:  www.openfoam.com                      |
|    \\/     M anipulation  |                                                 |
\*---------------------------------------------------------------------------*/
FoamFile
{
    version     2.0;
    format      ascii;
    arch        "LSB;label=32;scalar=64";
    class       volScalarField;
    location    "1300";
    object      k;
}
// * * * * * * * * * * * * * * * * * * * * * * * * * * * * * * * * * * * * * //

dimensions      [0 2 -2 0 0 0 0];

internalField   nonuniform List<scalar> 
162506
(
0.0150874383493917
0.0150914179388658
0.0162984834834529
0.0164061577180231
0.0167317961775635
0.0165728457941804
0.0151721383417011
0.0151278936131971
0.0164311371166712
0.0158106849903257
0.0153535826300569
0.0150314499898466
0.0150685530802356
0.0150490509114339
0.0150132782751613
0.0150111125916291
0.0153245830230927
0.0157351452259819
0.015044899730534
0.0150920088055736
0.015056120556888
0.0153412033508793
0.0157499525140193
0.0158004576438506
0.015375846166609
0.0153291032451095
0.0158118068409577
0.0150103026569671
0.0157516776274331
0.0153092747491014
0.0150027628318452
0.0150029866066541
0.0150132930485209
0.0150007570426208
0.0149985327322234
0.0149980728770034
0.015302772117884
0.0157509027357511
0.0150006769531874
0.0150757617428419
0.0162854802537985
0.0162868554012303
0.0150717910316344
0.0151160599899713
0.0169421918674734
0.0169512053724386
0.0151187328660333
0.0152570864672366
0.0173879865781033
0.0177210759949709
0.0171052300157967
0.0178912125466582
0.0188732819924687
0.018309843110765
0.0153536693744024
0.0153030202406333
0.0179965975237618
0.0171592097120639
0.0152291546562628
0.0153346205173917
0.0172187162171628
0.0164794368137148
0.0151769324953577
0.0150524438334621
0.0150163650586924
0.015348405774562
0.0158681894034517
0.0158296423905596
0.0153008631771801
0.0150080527353556
0.0150285250131468
0.0150161667932832
0.0150051475947815
0.0150106213079583
0.015028833802722
0.0150320627699176
0.0150755668740943
0.0150740627965721
0.0151496127730329
0.0164186906924303
0.016436499864125
0.0150885544919724
0.0150133186622151
0.0150029098804376
0.0152981225684811
0.0158259488480087
0.0159353882217461
0.0153536403361235
0.0150018579665073
0.0150105537091565
0.0150023464262312
0.0150017029249149
0.0150002020261903
0.0150016849589849
0.0150056200530952
0.0150010575039438
0.014998992992421
0.0149990703663874
0.0149995983299614
0.014999287453513
0.0149990341287881
0.0150012862989309
0.0150010935123134
0.0157505482509596
0.0153026016381373
0.0149986582728394
0.0150033831558206
0.0153088191399533
0.0157507506838107
0.0150109398804064
0.0150707139232246
0.0162848842176535
0.0162846433033152
0.0150740095528511
0.0151145583196078
0.0169491028368525
0.0169507428276092
0.0151214114455562
0.015160982430148
0.0177427051128486
0.0177086233371897
0.0151609741643833
0.0151559799247219
0.0176894520021057
0.0185155103243424
0.0154778500465171
0.0157733479544794
0.0193271293058538
0.0201357503075449
0.0187404892523164
0.0197544352194431
0.0212819252773285
0.0206036788352015
0.0166404426004186
0.0160703262696876
0.0201731807253629
0.0189447450026373
0.0155807513586234
0.0154595066086731
0.0192316936367948
0.018148027536301
0.0153564363564853
0.0153191034636977
0.0180739313101135
0.0171542754836631
0.0152749569585681
0.0151438214610826
0.0171857337493371
0.0174783203917866
0.0153348848099661
0.0151510237489249
0.016620740020525
0.0166981199644009
0.0151203411019696
0.0150080613429726
0.0150015651916139
0.0153820115054002
0.0159814350074676
0.0159210454255939
0.0153476059764957
0.0149991341918334
0.0150044517044322
0.0149999928352401
0.0149998037719734
0.0149990194965081
0.0149973544929086
0.0149981385732406
0.0149992999741972
0.0150004428203669
0.015001393431498
0.0150060242307487
0.0150015117590897
0.0150035954420438
0.015014027324103
0.0150497373486009
0.0150141285477651
0.0150119433927544
0.0153238174864698
0.0157333458495331
0.0150455779486409
0.0150882383533787
0.0162948722754638
0.0169447247888168
0.0151167604234357
0.015112474487373
0.016938169000877
0.0177001630007634
0.0151561149646183
0.0151529496150174
0.0177391655609424
0.0186637975396509
0.0153745994766989
0.0153853088687162
0.0186716597970055
0.0185900405693832
0.0154163505287817
0.0160095725691909
0.0197382724546779
0.0195753754434975
0.0160848099271792
0.0162791784814728
0.0199770325776559
0.020929580483248
0.017250178430842
0.0174642426813456
0.0213908075824895
0.0215299868623302
0.0172733339219435
0.0165756063904973
0.0205513192567857
0.0214114905089918
0.0167620963850044
0.0173598274214816
0.0228682292306196
0.0248019268311563
0.0179857762616974
0.0186079328173388
0.0246888490093132
0.0251686975533339
0.0290170097506803
0.0266327661920343
0.0192639108463847
0.0190593782321145
0.026446424007176
0.0258197297438265
0.0188988110766869
0.0186103301104843
0.0233789221086673
0.0263197894850265
0.025122305069762
0.0234563452199642
0.0178163282657697
0.0218782797177958
0.0241517344602766
0.022817717345301
0.0208574152610833
0.0173613928550291
0.0224802393803738
0.0223282538344239
0.0170299025176365
0.0162416069923565
0.0220603884487423
0.0205338428902729
0.0157262263969093
0.0154751691085481
0.0204120707417259
0.0191503063551188
0.0153653034144837
0.0152162533540002
0.019147905504753
0.0180896395618473
0.0151791216769555
0.0154001396619198
0.0185889688477958
0.018684304872362
0.0154149098523091
0.0153323212602938
0.017565946351641
0.0173564394027627
0.0151140831890059
0.0150459168167825
0.0165890938650635
0.0165844093114198
0.0150512521782972
0.0150065867861553
0.0159179874418373
0.0153470335815764
0.0150000941049948
0.0150001577944369
0.0150015706255994
0.0150065625282385
0.0150010106427982
0.0150022384881049
0.0150047766400861
0.0159757600613274
0.0153804536044253
0.0153517582941088
0.0150004187153541
0.0150096504337187
0.0159306627950503
0.016611537787498
0.0151527088759128
0.0150890366277228
0.0164278971616496
0.016413615770571
0.0151510013815796
0.0150280520750741
0.015008607919275
0.0152998121268887
0.0158276028626659
0.01582132796881
0.0152968923374146
0.0150033697227495
0.0150136344842487
0.0158641267684166
0.0150517619176336
0.0150157869302057
0.015347139814052
0.0153527039847137
0.0150309246522784
0.0150675199729104
0.0157898278208138
0.0164049935400864
0.0151417078427467
0.0152427102238449
0.0164323694133927
0.0166318913578644
0.0164490101273388
0.0157543626514004
0.0153310145085187
0.0150325459219335
0.0150695413354646
0.0157621256646961
0.0153310696238283
0.0153751731155175
0.0157680018395122
0.0172587874166853
0.0176110771614065
0.017129388922961
0.01534302697824
0.0152483005414132
0.0171287198011067
0.0179579931019809
0.0153268997010081
0.0154393781081598
0.017909324495248
0.0187463981306375
0.0181667094520761
0.0192067981785702
0.0199514329181761
0.0187478916321698
0.0159051963436393
0.01549426348341
0.0184965239754617
0.0185731598589283
0.0154064548056267
0.0159948241452375
0.0196867519108815
0.0198426161257936
0.0159388901830899
0.0159496376887999
0.0198637936840305
0.0217735404697176
0.0168018665007552
0.0174224585727583
0.0232503700464527
0.0255984625052515
0.0178682466582438
0.0177951648288996
0.0249948634307496
0.0277448879960045
0.019201686757844
0.0193825261030506
0.0272002255311363
0.0265266895174637
0.0195650615486542
0.019342323593246
0.0284008045969895
0.0325049205410917
0.0274061083985585
0.0297489107362237
0.0357771224511292
0.0303548871587414
0.019805529082629
0.0193351922605709
0.0298746107805689
0.0279417353859517
0.0192183198288065
0.0190446938202306
0.0267172524835505
0.0253636314787737
0.0185726684694729
0.0180212191253002
0.0236290590661088
0.0232633402439113
0.017384132045423
0.0172257589284375
0.0244848645806539
0.0239529834730862
0.0168208430117997
0.0158353633775683
0.0219187408041531
0.0218219174267813
0.015514387566279
0.0152822244342561
0.0203790123064461
0.0215500764780869
0.0155261226995745
0.0154627579064541
0.0199338608381254
0.0200328379898288
0.0154888706366953
0.015222115363048
0.0193160337744892
0.0182610215930672
0.0151697911382867
0.0151752856217065
0.0182537681366443
0.017351051124607
0.0151195115303631
0.0153352785849311
0.0175537194542973
0.0166888423955216
0.0151252778834596
0.0150475513192714
0.0150072243106002
0.0150113887707982
0.0150051948629262
0.0150040783458038
0.0150039357957068
0.0150020945643165
0.01504437148798
0.0150230531924989
0.0150544951674969
0.015335813306257
0.017464346497212
0.0171728950783766
0.0151410974206481
0.0152759581800186
0.0171447703406242
0.0172068349801843
0.0153372620017492
0.0153622029670874
0.0181292472809975
0.0192001097538484
0.0154765880064497
0.0156204594898448
0.0189001067316942
0.0201120003095794
0.0161503575567762
0.016716000609615
0.0197598093187703
0.0210513204655166
0.0204362322115016
0.0222383719526622
0.0225476033904136
0.0208759203695529
0.0174712094110019
0.0173139061649589
0.020857659066602
0.0199129146816298
0.0162678191450971
0.0165699334317767
0.0204830481391584
0.0213622673799542
0.0173856211664053
0.0175366280535071
0.021283138034316
0.02184255352164
0.0178843498321882
0.0233642429349515
0.0238260963293428
0.0259617284578652
0.0233869504844592
0.0188735969516418
0.0249825920687464
0.0259601881214667
0.0193760090898698
0.0197053290548507
0.0266004205696383
0.0262509660058408
0.027791931489418
0.0250352751788348
0.0199079072814819
0.0191454349763417
0.0244450961388442
0.0246514017691264
0.0184990415417593
0.0180748777770095
0.0248511403011273
0.025500476813624
0.017994319744712
0.0178873905236206
0.0256343418348263
0.0257126004168749
0.0178797597030388
0.0194852780797498
0.0287972749440314
0.0285716662431538
0.0194430242960034
0.0207610747524843
0.0306557521196021
0.0297619012794422
0.020468985354842
0.0203392218324152
0.0296186689133096
0.0288373660245006
0.020368710853141
0.0199482480961376
0.0284543178469773
0.0294750150736912
0.0204635921972454
0.0211950485272792
0.0333762744395968
0.0325847000023125
0.0397628361576596
0.0323805255057711
0.0201643650511632
0.0194863736225148
0.0318903363851743
0.0312183987665123
0.019293641228089
0.0189950777994477
0.0294604285388354
0.0273258739786896
0.0188777548508455
0.0179839247229395
0.0261948599271348
0.0248832219686682
0.0176793236607286
0.0168146465080781
0.0160755618627517
0.0154545981663179
0.0155063989956274
0.0157025721706346
0.0164472190329555
0.0240438011981746
0.0256185071722735
0.0165368990724267
0.0164867526285742
0.0252939113330034
0.0248925131977564
0.0166458690647245
0.0166027326652022
0.0246070089575176
0.0252965846702688
0.0175138821423953
0.017456716747168
0.0255174609166137
0.0259255435697435
0.0174758077728698
0.0180519123936255
0.0264803891407419
0.0260116361337283
0.018122066511263
0.0173173669407776
0.0246176906318313
0.0167210756349962
0.0185780703853572
0.0276979582695776
0.0295080129051834
0.0195213477348661
0.0190338716514072
0.0285416015764394
0.0273942818603295
0.0177885279441556
0.0167503151550749
0.0282874515118358
0.0307793103070841
0.0163269866986381
0.0162198076434533
0.0281166944436361
0.0256235378188081
0.0160800377137135
0.0156151493005441
0.0234648088572877
0.0235577995427005
0.0156432950539118
0.015555583122508
0.021648102155046
0.0205351945752319
0.0152732373799737
0.0152784771834678
0.0205195982031078
0.0193056348455107
0.0152277542642397
0.0154878096209949
0.019997534381955
0.018664481437314
0.0154168588914271
0.0153956752123238
0.0185668871793738
0.0180698103197995
0.0151682868165831
0.0153179622197231
0.0180564582939462
0.0191197225499153
0.0153593022812994
0.0154569811794296
0.0203616690662087
0.0204823959997342
0.0158014495388291
0.0163480719492271
0.0220343131016131
0.0222552428518077
0.0171528217503202
0.0181997072193816
0.023699483376711
0.0251536854392664
0.0190977912723716
0.019624476064791
0.0275207012036349
0.0282754779532499
0.0199961580590762
0.01984389607144
0.0271624481806264
0.0282944877285102
0.0208003428291202
0.0208306938719755
0.0289295597583655
0.0291536445577279
0.0202659116038148
0.0207800662617392
0.0308084133099115
0.0320605189665025
0.0371268386755374
0.0323590468208982
0.0225349834354673
0.0228270488167577
0.0320682875138388
0.0307447950878431
0.0223627333999501
0.0213941706642377
0.0291863431608195
0.0332558568691497
0.0296507127257126
0.028265076623273
0.0308632457873418
0.0274104278871658
0.0213041629133603
0.0208223765916516
0.0272707865949314
0.0273265920860522
0.0200893169622248
0.0195527384206077
0.027748304465648
0.0285465987263604
0.0195770144038231
0.0194990746731216
0.0287408048235159
0.0309650941018684
0.0209335395721997
0.0209625850613381
0.0310379453299159
0.0309645268073583
0.0208577627861636
0.0208555134593338
0.0307303148596512
0.0339658626738996
0.0228342264751806
0.0226946265662594
0.0338455696177212
0.0328951163042088
0.0223017344367646
0.0220337795849073
0.0325178662067636
0.0313464143432927
0.0214772464669756
0.020590592508468
0.0304851326423938
0.0325564617669603
0.0211745761586207
0.0214193689116647
0.0352177360572292
0.0380336665405288
0.0216600800425697
0.0215240020741865
0.0383273798331163
0.0356879751268602
0.0438684649318114
0.0344403291940415
0.0204829165222451
0.0196441379178909
0.0340498488521435
0.033850103944205
0.019445771056728
0.0190916687436174
0.0317738032043669
0.0301323344221948
0.0184917617068517
0.0182068897735552
0.0281045298041377
0.0171912833915111
0.016498014759391
0.016208938651177
0.0162998042402938
0.0157435411887493
0.0156687603612979
0.0156028290836189
0.0155606289992309
0.0153306545758413
0.0152787775267487
0.0155796537765947
0.0250896388185001
0.0234639600839042
0.0154393656944163
0.015337547948456
0.021927389589262
0.0219030688590436
0.0153350958742137
0.0156238771790283
0.0234459599324948
0.0215816796139129
0.0155560990534501
0.0154935908958617
0.02147938405215
0.0203315686279855
0.0152520837834213
0.0155951381538094
0.0217356226649545
0.0218274600676142
0.0159746040227292
0.017058390538511
0.0240196884336963
0.0245796303084966
0.0176643594229656
0.0174956453704197
0.023219640259505
0.0250054408274043
0.0179217152924279
0.018767254482838
0.0257189149349175
0.0283888812850894
0.0189357159297683
0.0200882700406806
0.0311465063315922
0.0320969609191877
0.0206814997231921
0.0228926422372048
0.0349044883220855
0.0399959185468526
0.0334746080395952
0.0353291301757269
0.0444302570872609
0.0387628159312571
0.0232287310320042
0.0240055725791266
0.0387740673118307
0.0359857068126272
0.0247584997048593
0.024531703762559
0.035736594009853
0.0371858698507682
0.0247769127872645
0.0255303569875093
0.0378646820680809
0.0380497751380041
0.0252068733981768
0.0254503039234893
0.0384534182493968
0.0400764616781593
0.025783826460992
0.0257917646074023
0.0403103506293565
0.0409340933401133
0.0258399070839374
0.0258247690802976
0.0408645290554386
0.0406237041724242
0.0258224991303498
0.0256609239149383
0.0402713635582702
0.0395153516692017
0.025468296253199
0.0251900245543106
0.0391898993015261
0.0385844914263964
0.0249063989603681
0.0237743893052694
0.0375411427877629
0.034720107620777
0.0223599700836415
0.0227075550586359
0.0390257090622783
0.0439791290465422
0.0230636174475187
0.02349219689922
0.0506262383162017
0.0411892577530472
0.0218395051222864
0.022117954430861
0.0451500833489933
0.0443628620190135
0.0218388655495728
0.0207965155184615
0.0367271487772468
0.0487822801264766
0.0393400143857781
0.0431140571564097
0.0537902004906
0.0395161600739966
0.0211010313624805
0.0200979735345817
0.0390736601895594
0.0364307059686887
0.0197920892707883
0.0196484303212476
0.0367484977732693
0.0343385270617217
0.0192154532676066
0.0186244912296067
0.0324401323770606
0.03175517624063
0.0192400490783042
0.0190258833521211
0.0294916160121106
0.0171753537543298
0.0174011809004705
0.0168661503475426
0.015777254432063
0.0158367191505345
0.0156464147482728
0.016043506336546
0.0309697714640105
0.0282545736320289
0.0158910968840066
0.0157692167600923
0.0257857754374526
0.0153871302736694
0.0151976678543153
0.015191965520001
0.0154381176910642
0.0233956969267805
0.0255821003720355
0.0157144758464983
0.0156973226045952
0.025507175985935
0.0234123493917411
0.0159670833560244
0.0164559451778776
0.0259273726734719
0.025155383149764
0.0172711801681931
0.0178681156788079
0.0256115501500639
0.0261989400976729
0.0185438829202584
0.0181113979944249
0.0262498624177831
0.0269925359151815
0.018203781493365
0.0184363937043099
0.029153715324572
0.0310291261622645
0.0191844274285107
0.020427444598208
0.0348794343476546
0.0332488296526331
0.0208237666435716
0.0209600803787395
0.0354525968454482
0.0375532985948732
0.0484517474875613
0.0426675442803993
0.0235214941436788
0.0243902988122752
0.0436391998142522
0.0412229274143986
0.0259725096321245
0.0266324533802568
0.0417068329843493
0.0449857355411406
0.026728357013465
0.026739922439508
0.0462885130114432
0.0466995749002397
0.0268708050073448
0.0273781323029012
0.0487465242732419
0.0493061435234258
0.0271603221820976
0.027475270313204
0.0506415238958304
0.0511929467558901
0.0276177188944409
0.0280103194298055
0.0527524032111662
0.0545388516007187
0.028191994040572
0.0282390908549377
0.0552525911758344
0.055358052905835
0.0280880199317769
0.028371720103734
0.0559015967292246
0.0570390002146864
0.0283722102295351
0.0282840874740855
0.0570854079914761
0.057020148494337
0.028342632128786
0.0283490809881412
0.0567051595939011
0.0562809443736562
0.0284722703000998
0.0281882446066703
0.0554849511718244
0.0553140458063137
0.0282087475797665
0.0280645945072189
0.0542388636406964
0.0532820111466335
0.0280101031239789
0.0276490564868586
0.0518300620727901
0.0512969626089407
0.0274727831908023
0.0271014536400036
0.0499668956526102
0.0491084990031226
0.0269055954790175
0.0262895291137152
0.0473280420035256
0.0471902320113021
0.026093175753577
0.0259773893191824
0.0417881126181148
0.0432806387592287
0.0265940535915229
0.026756250009879
0.0436437020886958
0.0442589394900417
0.0271024195312705
0.027194217932099
0.0442698915117415
0.0450863025501936
0.0275599281025333
0.0275827088083976
0.0455805578598122
0.0462489690607857
0.0277767500501321
0.0277208270032912
0.0462776836062249
0.0467553351034457
0.0279586497455512
0.0278559638336404
0.0469105350081919
0.0471641093641397
0.0278729446674648
0.0278402325633732
0.0471544689661043
0.0470934929455997
0.0278782216638996
0.0278429512088567
0.0463606746395071
0.0460509928064777
0.0276522030749472
0.027811900332913
0.0460374189796693
0.045525433667586
0.0277074185959932
0.0274932888041264
0.0440535904051086
0.0431861652083567
0.0271221074115521
0.0270593160068511
0.0430092002957566
0.0423880332342786
0.0267622440904743
0.0270875969171714
0.0422946508086505
0.0409183418103401
0.0265845817205723
0.0268264289452939
0.0228661629373303
0.0204831219750474
0.0179138357357301
0.0173706983885137
0.0166261597682262
0.0164762442730671
0.0159052618326044
0.0157882812895376
0.01575477444578
0.0154965425072051
0.0154185192885825
0.0158622046572884
0.0279424666781291
0.0281004094838462
0.0159500907428371
0.0161468786681077
0.0309564987402345
0.0286631464641552
0.0167894170617668
0.0173486480051315
0.0284469980219588
0.0268332945795562
0.0171998815957627
0.0182357439923984
0.0278494293059476
0.0285534228067912
0.0189507671314045
0.0184207271495934
0.0283361548630689
0.0305935026944172
0.0186094075424945
0.0186832889991327
0.0313474817690438
0.0338768763376456
0.0195249052294479
0.0210710532791535
0.0392682613816862
0.0374829062802593
0.0214943950874616
0.0246658290615039
0.0403056652558265
0.0534850602827394
0.0468971125331427
0.0496497801926734
0.0248363272267244
0.0264241685859982
0.0481648220488217
0.0523031620244465
0.0271214024011324
0.0281839919134759
0.0556914255533789
0.0583935586918607
0.0282774921585746
0.0282627548290106
0.0620118487316998
0.0630309158282993
0.027590823675896
0.0282390793025617
0.0656822504321739
0.0667826033953528
0.0283238884492577
0.0288061951196948
0.0692593767089235
0.0707477550141202
0.0292605299085484
0.0297796153474203
0.0729056864291723
0.0744263722446551
0.0300741135520863
0.0302736128981238
0.0747862335796222
0.0750382270120779
0.030349473091705
0.0308177141535966
0.0760618461718532
0.0779131763675253
0.0307838531227131
0.03069919769979
0.0777678139665352
0.0775218694698893
0.0307953902078421
0.030700357468564
0.0772676344324152
0.076549366964193
0.03076607400144
0.0303570948645681
0.0755651350837382
0.0754313131219476
0.030094575071149
0.029783660613034
0.0746092744409292
0.0733289146295722
0.0295181943978091
0.0290759841772975
0.0711258044098638
0.0690052188860768
0.0286274956916792
0.028081391352196
0.0664972347952758
0.0658140411046909
0.0277178995317677
0.0270059073594114
0.0645340465570757
0.0568782756146858
0.0259456083578312
0.0256921886740623
0.0509705221820789
0.0454890670119247
0.0242394434627088
0.0247457567068615
0.0548913047463706
0.0675576955510728
0.0252614557148395
0.0258288415670323
0.0867897383928417
0.0591904400690717
0.0239143870584379
0.0243357463923285
0.0713166422241218
0.04903653387035
0.0222656619558886
0.0225021384537865
0.0548201925634033
0.052097841305836
0.0220958160656905
0.022337064404743
0.0617787533406319
0.0483950347318335
0.05987582157751
0.0429831777389426
0.0233060136836967
0.0218667247240156
0.0419955011417506
0.0433375525131883
0.0215354953977485
0.0203269370182988
0.0412120184078088
0.0373053074718673
0.0193455691799584
0.0187374109464377
0.0350421779404061
0.0342976489388009
0.019316361439356
0.0197841485791126
0.0350898521608357
0.0321350656213089
0.0197579164294714
0.0191691227641654
0.0310838281382274
0.0289888608455623
0.0176046009911906
0.0176597888933579
0.0306991672837627
0.0314618316183308
0.0172930073946013
0.0174453771471753
0.0342374886685337
0.0342407783042118
0.0162300684397691
0.0158440275443379
0.0289010730839685
0.0268217930089779
0.0157263017744118
0.0157269902038404
0.0266773564553881
0.0249730079848246
0.0155783343946476
0.0152760892904607
0.0153773612621672
0.0155503657572752
0.0160450251041109
0.0305892604367085
0.0338457047978578
0.0163104553463513
0.0175234055592075
0.0342723446130039
0.0317819303598622
0.0174972434533463
0.0174374321709023
0.0315693693582481
0.0298415234182928
0.0173229898963788
0.0185187241225561
0.0329240897508324
0.0303371718672475
0.0183897943830726
0.0191054008995008
0.0312271488912857
0.0341820950372964
0.0192160183543017
0.0187782089884779
0.0330338141068406
0.0337802422209469
0.0189027347854841
0.0198505489910296
0.0371130490991053
0.0442195137439696
0.0214188570621934
0.0217951575099674
0.0424340285391744
0.0475217917342449
0.0675414454332805
0.0574482428924073
0.025410826671414
0.0256047423209578
0.0661090836252947
0.0699388336601802
0.0273255764569044
0.02804878321432
0.0887361548913485
0.096897646175936
0.028917269496155
0.0324281422595643
0.135642368639702
0.136502066660085
0.0326193120585145
0.0339563861567423
0.142832842600212
0.156382443372362
0.0381117190281006
0.0444898209381068
0.15610287910537
0.179401287793164
0.0495203924966454
0.050578525979475
0.18761191891124
0.19178752498645
0.050302464396263
0.0494510811392453
0.192279322679016
0.193057276219638
0.0495852536850632
0.0492125011763838
0.1914520231269
0.190537755283644
0.0496910303934519
0.0492857792597517
0.18789131207302
0.187357147325325
0.0497351264474225
0.0494083800520187
0.184679520424031
0.185214644256866
0.0498961225231543
0.0496252468332789
0.183824420234984
0.18582130266431
0.0502319962236033
0.0503017255367533
0.186070246343327
0.188810491227643
0.0508808431483613
0.0506165077145984
0.192877910090884
0.194302479812184
0.0506465900055711
0.0503737729019665
0.192387426553981
0.191541500890766
0.0505445903729918
0.0508711064166983
0.191380829112859
0.190440436221628
0.0504562394955429
0.0506685238647517
0.192261714603785
0.19063508319211
0.0502545883161512
0.0508161259369405
0.191781180734785
0.190082925456688
0.0503021884188502
0.0504438964784315
0.190779800680875
0.189732848518514
0.0499057754856971
0.0502212863147026
0.191986622212285
0.19228199503642
0.0497563593824664
0.0501415127260246
0.195614901228068
0.196999460327851
0.0496467822908685
0.0502939690569638
0.199920436005023
0.200233659489311
0.0504382112804527
0.0515011709594229
0.200072135869358
0.195402733291296
0.0517338051870309
0.0504587813620254
0.18608975696942
0.160829907183389
0.0452432682102252
0.0393293705722639
0.162071611551981
0.152335259291027
0.0354879669303164
0.0323826217830516
0.149907577935246
0.101681197865537
0.027414842384336
0.0267480812756541
0.0842922049133523
0.0732629365144642
0.0264249517767341
0.0260120437930098
0.0635912763269311
0.0774822647152463
0.0275457456567264
0.0288598519622581
0.0940063842429086
0.117297822335235
0.0300657701734776
0.0331213775142003
0.117338344297778
0.121568702589416
0.0371851902776424
0.0438515179135523
0.137960730652018
0.147659199343514
0.0495182857753718
0.0506747690099202
0.153228109253038
0.157578624228359
0.0510026400515468
0.0495449150342353
0.159823110531905
0.162154515802544
0.0494620286098622
0.0483574004017285
0.160780358130574
0.161601529364084
0.0490064015012039
0.0483416711022651
0.159111347851649
0.16026390556224
0.0489490141515565
0.0484274666866137
0.158249609951056
0.160008677485939
0.0490742336298397
0.0488022843945936
0.159403521418008
0.161268556744695
0.0494227754331859
0.0487678355183943
0.160718206218267
0.162062825536018
0.0492487768849321
0.0489975393050928
0.160652327019384
0.161552250239891
0.0494158629321111
0.0490903569312079
0.161801311725775
0.162104606758558
0.0489575551974397
0.0492246612662838
0.163553516208258
0.162729334439145
0.0491434402597849
0.0494134801884761
0.159118379828173
0.157085271308013
0.0488125701467456
0.0488007844898546
0.156610657163482
0.154706897517085
0.0481406891802822
0.0485492530860242
0.155963846153523
0.154609040651814
0.0479504707408623
0.0484632846068939
0.156947782847544
0.156021378540807
0.0478827947899057
0.0485552978972925
0.157830511280368
0.156761793750401
0.0479402963737346
0.0486830568418513
0.156972280285703
0.15407081649179
0.0485082416407097
0.0497996773116989
0.151864854944402
0.147798525537117
0.0495846896253964
0.0485366863484742
0.142863517424147
0.1339040663584
0.0431231663850243
0.0358518209994518
0.119089939136065
0.111052292135989
0.0414223022157947
0.0457617794707012
0.11655123921506
0.119760823258249
0.0466012398694952
0.0474162526992959
0.12283271749949
0.124139516530837
0.0463463259680792
0.0471705036508114
0.126976195146732
0.126945515352003
0.046200890903165
0.0469417949397477
0.129357034458795
0.128145174600032
0.0459099118076901
0.0466696723936052
0.130048320343539
0.127994937194359
0.0459219399875424
0.0466572558233729
0.129746021354509
0.128695540138107
0.0460916675187835
0.0467930335816445
0.130296914286142
0.130967482043372
0.0467446595922921
0.04735550016466
0.132266489996922
0.135399975389874
0.0470767990634872
0.0472046785302119
0.135891279240874
0.134822353617003
0.0469464402609301
0.0470288896928109
0.13474897358075
0.134455009526548
0.0473437304738946
0.046952044886883
0.133794962297201
0.134827989239785
0.0472392116339165
0.0466975170725366
0.133740939202424
0.133854536761691
0.0474605408316292
0.0467188029000159
0.132150999504979
0.132624627903669
0.0471476180842026
0.0463705770918544
0.130552829230732
0.132365401223581
0.0471586178435128
0.046346705307851
0.130243900505174
0.132172888442798
0.0474116623235029
0.0466162228960788
0.129824174190594
0.131121589636162
0.0479609191044458
0.0472682271658317
0.128510252241535
0.127064940307241
0.0484760961309019
0.0475604758936084
0.123792821603242
0.120177039982443
0.0467114857218916
0.0421144646386507
0.114348201094344
0.103573597690178
0.0379691185539341
0.0328111746169571
0.0950352813497082
0.0940249386779492
0.0306277780090266
0.0287940698958666
0.0780386045686168
0.0791244807191925
0.0294096545527576
0.0302375444317676
0.0828809675932772
0.0862288430921655
0.0305676440330352
0.0393023888647197
0.108505740555949
0.112115057570527
0.038980413467799
0.0386488665090805
0.112922380076573
0.11312297539517
0.0385737161667185
0.0386639637345174
0.113223451673072
0.114439564665119
0.038948525393548
0.038794530347992
0.115549650949549
0.115572307329593
0.0388833038995151
0.0387211039881479
0.116119743044566
0.116707996369542
0.0388459263786898
0.0389605319260032
0.113439621830842
0.111667399206825
0.0385137204766664
0.0383888837432462
0.111185888364889
0.111336160614563
0.0383150861164503
0.0384505673352874
0.110471562095978
0.108379976278107
0.0385103705282486
0.0387099794248782
0.105103003796341
0.100657971513699
0.0372266061664138
0.0318389079115281
0.0938980861948708
0.0896937513213222
0.0292849940153816
0.0316607818070285
0.111313749035474
0.108094815091513
0.0307111524477235
0.030277098822787
0.106572616514988
0.0805099808315092
0.0284483220111032
0.0275814041294474
0.0665789123857602
0.0696771819292148
0.0282910063106827
0.0292334833871855
0.0852788785246382
0.0879461476519467
0.0291716820959296
0.028522964715568
0.0728430959731902
0.0742957626965422
0.028151195265773
0.0290040902367307
0.0782934133356432
0.0804286937499856
0.0298081296211831
0.0302623765994317
0.0837237189366854
0.0855286437558644
0.0305064707814316
0.0312647495133753
0.0865306263760162
0.0867947815798403
0.0318024023338481
0.0321797697292567
0.0864495053654531
0.0864510171161321
0.0324369243534036
0.0329850471698052
0.0876240708799098
0.0896588586520487
0.0329797078953013
0.0328986856874371
0.0894155126941034
0.0890912988494136
0.033001006749421
0.0328597899232923
0.0888540676665098
0.0883386509529024
0.0328274945918965
0.0323267487840914
0.087648342056422
0.0881432128533107
0.0318354863408557
0.0312601279382065
0.0884670224915494
0.0885734389531126
0.0306956920421842
0.0300866651801243
0.0268220418123809
0.0263745121716372
0.0258523039602859
0.02523895985212
0.023380320693403
0.0232133384745335
0.0228725213816351
0.0225582801524826
0.020115017848236