/*--------------------------------*- C++ -*----------------------------------*\
| =========                 |                                                 |
| \\      /  F ield         | OpenFOAM: The Open Source CFD Toolbox           |
|  \\    /   O peration     | Version:  2312                                  |
|   \\  /    A nd           | Website:  www.openfoam.com                      |
|    \\/     M anipulation  |                                                 |
\*---------------------------------------------------------------------------*/
FoamFile
{
    version     2.0;
    format      ascii;
    arch        "LSB;label=32;scalar=64";
    class       volScalarField;
    location    "1300";
    object      nut;
}
// * * * * * * * * * * * * * * * * * * * * * * * * * * * * * * * * * * * * * //

dimensions      [0 2 -1 0 0 0 0];

internalField   nonuniform List<scalar> 
162506
(
0.00149778787253825
0.00155215989755812
0.000102987394865903
7.88006981561497e-05
3.92610593103084e-05
9.52643085958792e-05
0.000460202382089915
0.000530879845156971
9.31985129512186e-05
6.34522923125897e-05
6.95894766014725e-05
0.000885929234126917
0.000936962192303371
0.001301907231067
0.00293195046320405
0.00332149228723739
8.95290048620618e-05
9.28914368453563e-05
0.00132938511446473
0.000677622047862497
0.00091084572928469
7.98740563881769e-05
8.51388147525754e-05
3.87255255710097e-05
4.3601406577311e-05
6.12589343627453e-05
5.67982456285386e-05
0.00570467381513809
0.000106154258048862
9.8201298092827e-05
0.00813589805800783
0.00772429449599657
0.0049619411521703
0.0104497305515407
0.0150001156309082
0.01494131237628
0.000100603872007151
0.000109813033022656
0.010656875325096
0.00846279009188866
0.000113129363364645
0.00011071308575661
0.00510442505628724
0.00458123669905146
0.000110746166958037
0.000110630967707323
0.00324811131225683
0.00081547810850456
8.70932734115214e-05
4.53255859981849e-05
8.5177259963155e-05
9.13393322292177e-05
5.00791133882385e-05
9.64933570280596e-05
0.0011608522053904
0.00128190248973969
0.000101217894183577
9.79042411952656e-05
0.000863634406289955
0.00214226665528757
8.25007203638943e-05
8.17069655540791e-05
0.000955015911355962
0.000819821458016115
0.00228422493833872
8.06791230228891e-05
9.25357058725336e-05
0.000109623899741409
9.78206582665493e-05
0.00435001094269446
0.00283496170527063
0.0041818914764278
0.00593937469890414
0.0035295661056989
0.00247402619535774
0.0019245326385615
0.00167930611082829
0.00333935442049372
0.00298424691520108
0.000102682516779974
0.000113684694876198
0.00530296303906795
0.00507024248552468
0.00827188612079397
0.000102931291583187
0.000112842899392898
9.99222970066814e-05
9.02204877623921e-05
0.0101042332476447
0.00566187076021458
0.0131016061609691
0.00962098814563836
0.0145278990010704
0.0125325612609121
0.00871265695517843
0.0116670499539781
0.0150003105300832
0.0150014785210532
0.0150016946241473
0.015000440776393
0.0150003382828458
0.0103849902041214
0.0109421703466447
0.000109774144437894
0.000100687851374387
0.0149430635826191
0.00731798029251921
9.82866114858989e-05
0.00010700880382771
0.00569903117288134
0.00570789247486959
0.000110705833527539
0.00011366458797731
0.00931352639576559
0.00803723479441944
0.000111184157479294
0.000110076267894622
0.00787806893074889
0.00485531634688117
0.000110957333845003
0.000110718462972393
0.00380484364484508
0.00334307712397384
0.000115614962294555
0.000112463274853011
0.0023035790054282
0.0011257147085333
9.69962689122835e-05
5.41724205775951e-05
9.42751091149742e-05
8.76786921865679e-05
4.83543369251691e-05
7.64183096461447e-05
0.000744109366537946
0.000702618908126842
0.000112255885890874
9.67021786644033e-05
0.00131388408194
0.00219422376209478
9.34313245567373e-05
8.75990832337676e-05
0.00271910174768071
0.00373554484238039
0.0001078056065263
0.000106073413860481
0.00351561971785041
0.008245526807956
0.000106405597702251
9.81113689265458e-05
0.00480107089158038
0.00691891810052423
0.000104860844050892
0.00010238886196636
0.00802706695211967
0.00709632242084917
0.011014539314976
8.65932480623339e-05
9.6009238943867e-05
0.000105912808155704
9.42711110751784e-05
0.0149278965015003
0.00818184617620009
0.015001115348269
0.01500070067899
0.0150003449725021
0.015000811067146
0.0150010936145065
0.0150004693406608
0.0134236918250695
0.0141989112980905
0.00868983569925933
0.0104543482506429
0.00703776387537384
0.00489597543632688
0.00126310852014589
0.00278924895704727
0.00312906254330557
9.01386642931081e-05
9.6296024901299e-05
0.00143555346809292
0.00168890204055282
0.000103016915109382
0.000110804901308823
0.00318641017451744
0.00532217652268423
0.000110970639250179
0.000111899076492937
0.00415817184060598
0.00515591180067764
0.000110579712032392
0.000108169534466064
0.0027614633262186
0.00275004402553102
0.000105268190274707
0.000108592564155064
0.00251830585002245
0.00135788680904454
8.9828680747549e-05
9.46402388075489e-05
0.00138294454215003
0.000725701492627756
8.7136714468848e-05
8.64020075080834e-05
0.000720434339043152
0.000611264838309845
8.03576023820469e-05
7.61390600940118e-05
0.000697397052234373
0.000640371945817462
7.77321029874277e-05
7.31186356295722e-05
0.000815316175696262
0.000588039373101442
5.39890692148258e-05
5.21228201665113e-05
0.000510031985686848
0.000618475988527821
6.4650545096373e-05
5.75187087643045e-05
3.32085518344583e-05
6.77645691204788e-05
0.000603936958056215
0.000540497570031892
7.23241580086779e-05
7.24102803175655e-05
0.000492179866092773
0.000480918256784304
6.02956489410678e-05
3.5889044157471e-05
6.82147630828445e-05
7.44083475995983e-05
0.000384376205835397
7.05369873711694e-05
3.37054455338325e-05
3.50645422759982e-05
7.43912597755055e-05
0.000503866864979846
8.75681252083049e-05
8.46243376915167e-05
0.000561179283894565
0.000968527159696791
8.6517973625385e-05
8.63001274952857e-05
0.00153000591546874
0.00207990314250229
0.000110603185555041
0.000109298713640478
0.00293695482756193
0.00432237858182706
0.000111642761722752
0.000107225616290358
0.00702164420038976
0.00436783636552624
9.5154707142559e-05
9.55647357702535e-05
0.0044221818077538
0.00496044145369086
9.77706534362809e-05
0.000115481600646503
0.00894252449812128
0.0113981371003962
0.000114554907187015
0.00011347135020054
0.0112405258538393
0.00701969215571403
0.000106435208808146
9.44093942533432e-05
0.0149281213391772
0.0147854777205173
0.0132761807106564
0.00587770025409466
0.0116683156645355
0.0094139286580868
0.0122220435726677
9.55658578019818e-05
8.70039088338479e-05
9.01438249840029e-05
0.0146918887097318
0.00536394019969542
9.95848238742749e-05
0.000103669269522882
0.00671425263184655
0.00564662528417497
0.000113321714186301
0.000102799111696203
0.00279488274774591
0.00295211252309845
0.00412951762744883
9.71565226767419e-05
0.000110734316590392
0.000113005551327399
0.000102844431417725
0.00766071359957949
0.00509399350321405
9.10200680603432e-05
0.000831308827317655
0.00235098364627256
8.14041472908784e-05
7.01138890033487e-05
0.000880433290006984
0.00101908747814885
6.37797960519926e-05
9.47446473870754e-05
0.000531952066700321
0.000455061908977119
7.79976472423863e-05
4.00561685696091e-05
9.87571986083299e-05
5.99531740731242e-05
6.40394748293197e-05
0.000927460485050012
0.000680692194320498
8.46168322935038e-05
8.28990145068529e-05
4.37522027251555e-05
3.9521704455884e-05
8.37537506481971e-05
4.57511105371155e-05
8.63678731377411e-05
0.000777736891602465
0.000875655673431507
9.7499569003993e-05
0.000103776137647627
0.00128210447081184
0.00117354803893156
9.25379256279669e-05
5.03683937778087e-05
9.53877661761522e-05
9.68377917752291e-05
5.38096662201706e-05
9.33021674345448e-05
0.00115157527226649
0.00236300689170323
0.000113801362980758
0.000106890777696781
0.00267068542322251
0.00135415557220578
9.44182957533953e-05
9.52168992937185e-05
0.00128797147539764
0.0013501937991258
9.68190905122547e-05
6.47558760377631e-05
0.000713051498287799
0.000422635051775947
5.1933489660981e-05
4.29907102378679e-05
0.000288951840489805
0.000373894918213662
4.75739267409904e-05
4.21591108978181e-05
0.000287859428744805
0.00038550849445409
4.7539772441487e-05
5.36926553087086e-05
0.000513742823307005
0.000622760983627496
6.21241509393734e-05
3.35132304807558e-05
5.2278541302438e-05
5.30017048007159e-05
3.82914474411403e-05
6.54316339328521e-05
0.000391796645609423
0.000488301224671905
6.65908896881996e-05
6.29017988451281e-05
0.000864201978740319
0.000419060875250256
5.64648041155236e-05
5.08522845533574e-05
0.000383942265000547
0.000313632561342062
5.87221882028299e-05
7.29387103130036e-05
0.000428196444310408
0.0008261400653186
8.0438768680245e-05
0.000110107670513214
0.000836338586882554
0.00131594284272464
8.93470811609043e-05
9.54966480338399e-05
0.00156084017009528
0.00262158883543742
0.000113726497146905
9.82763825623003e-05
0.00289643512539861
0.00413470615292686
9.60057487854404e-05
9.6578902300584e-05
0.0041352811179988
0.00489659759320787
0.000115129941988579
0.000114693737525513
0.00793504401740923
0.00792058325188206
0.000115011496712366
0.000114998012797041
0.00894416626473012
0.00493980660585282
9.64764493494105e-05
0.000100261379142126
0.00754440277164716
0.00319909666170281
0.00774661705893728
0.00777225355724073
0.0147373985230046
0.011946870824127
0.0105114546060513
0.00879826899206481
0.0115705667914515
0.0134230950619895
0.0110915192930814
0.00476620398371126
9.85274415629014e-05
0.000105249276514708
0.00819970071084551
0.00341749509704487
0.000105878006270651
8.30664319868678e-05
0.00205768432950385
0.00290612792350729
8.69784546885228e-05
9.27779456471583e-05
0.00256276428704212
0.00136897390798872
9.76360701712011e-05
0.000109872512541937
0.00073019494614534
0.000824857052873795
8.52834866497234e-05
4.67749881349793e-05
7.71504423666361e-05
8.44150327884906e-05
3.39708313948053e-05
7.08177402043466e-05
0.000540854713367709
0.000635649419856601
8.54537988294257e-05
8.61134962744836e-05
0.000724875029473928
0.000668677301038298
7.98668735487202e-05
7.57803392730766e-05
0.000586142349702881
0.000545902025810149
7.63964476234388e-05
6.32773823244808e-05
0.000374519711565537
6.72051075204321e-05
3.27131799573583e-05
3.27014623855109e-05
5.57622233783789e-05
0.000389134832620099
6.15260454114352e-05
6.38141327549272e-05
0.000322560867018414
0.000411084019165952
5.45923921272901e-05
5.25670741614509e-05
2.81025037623821e-05
5.04938188754542e-05
0.000424359570590162
0.000489130219257419
5.72590924344246e-05
5.31303967341945e-05
0.000409032017150477
0.000283341050471386
4.34172641499967e-05
4.00504424672612e-05
0.000259925142471566
0.00024593870129819
3.81414543346824e-05
3.92142310744352e-05
0.000250119809454762
0.000184602666275352
3.64094778046454e-05
3.55938413750657e-05
0.000214150264548046
0.000177655126630936
2.96754182197445e-05
3.73476635384504e-05
0.000190496387529388
0.00025950606470772
3.74501393693027e-05
4.2836177905333e-05
0.000295335261391014
0.000342629545262739
3.77666350008222e-05
4.47056891195793e-05
0.000325338445718917
0.000277058684171742
4.32867042676961e-05
5.52887401377332e-05
4.28075437835062e-05
7.00562168610398e-05
0.000312041268803702
0.000380635595433636
7.36454016638387e-05
6.74517065447332e-05
0.000448575170168261
0.000507060685047319
6.2792374373475e-05
5.64078125395128e-05
0.000445013078508643
0.00043251230552933
7.55653874517173e-05
7.25213139473366e-05
0.000491427648465399
0.000494221308121116
0.000610751039671475
0.000492685599674192
0.000304199913254782
0.000435692818358475
0.000835206718893512
8.29703421543955e-05
6.56649414071404e-05
0.000577938076891328
0.000364041260028917
4.64299137855913e-05
5.11105299669491e-05
0.000461463792806478
0.000754351968823985
6.36755122907451e-05
6.79959580246916e-05
0.000474166426155944
0.000390479834851349
6.02703294162306e-05
5.44101584179616e-05
0.000333859442848446
0.000336776603727031
5.50303267355063e-05
5.30447897323026e-05
0.00049982899268226
0.0009502509666624
7.45135002613407e-05
0.000477673287365437
0.000714272985131553
7.37871828311906e-05
6.30553808545424e-05
0.000583629463293081
0.000505496997246678
6.06659332168977e-05
8.15229037865429e-05
0.000380739561370163
0.000461446908263024
9.74589169888813e-05
0.0001075461727544
0.000651307334010639
0.000663770468969007
9.3633066802222e-05
9.22576592886856e-05
0.000973588517529951
0.00177999158459877
9.2246578691903e-05
9.6653652977648e-05
0.00172969822719204
0.00304845393444406
9.71782831813555e-05
0.000114940396714326
0.00275152364408018
0.00283573295295094
0.000115302112215223
0.00011542202542475
0.00519627483142899
0.00411907835369084
9.69220400733042e-05
9.57629613554842e-05
0.00440126085139485
0.0043510940594478
9.59428949793082e-05
0.000107235195750412
0.00760978062630631
0.00412422375105216
0.000107786705411492
0.000112851519199811
0.00320687927324795
0.00234746662465568
0.000110596168971922
8.3317288846131e-05
0.00187598094176677
0.000897079312458078
9.17651405434983e-05
8.11772601459971e-05
0.00052132936058343
0.00029953899231074
5.48780599713044e-05
5.80965977424263e-05
0.000791580115149142
0.000560299099094088
4.65135506243643e-05
5.68089254397222e-05
0.000797376544975528
0.00058528618750344
5.46520387633529e-05
5.32612746223172e-05
0.000417847323335559
0.000423351174536338
5.47504002253961e-05
5.4021995820944e-05
0.000430796172323215
0.000389154503831923
4.96165516541354e-05
4.82916200317574e-05
2.61109297825396e-05
4.10224030955265e-05
0.000285156680730342
0.000243902412567389
4.25341584744076e-05
4.55236713276436e-05
0.000224936312060151
0.000334927813483396
3.98424814932685e-05
2.46711384634538e-05
4.25955544034224e-05
4.4912825623642e-05
2.66073370358394e-05
4.5385694614152e-05
0.000428862989587591
0.000443242772793651
5.32059641098019e-05
4.36851627368325e-05
0.000306346724934537
0.000217334132960154
3.63298824984641e-05
3.85284759841931e-05
0.00018252045012104
0.00017447661930471
3.72416338428034e-05
3.2651782438033e-05
0.000129693929941346
0.000127864011975932
3.19761029427618e-05
3.07392127795157e-05
0.000153065845728439
0.00014733416708958
3.34226036554203e-05
2.62067399408879e-05
0.000126209858796337
0.000140608885009939
2.41471866008923e-05
2.97880522849069e-05
0.000168660650974647
0.000213490762383435
3.01998273305906e-05
3.56656330821454e-05
0.000242844218775912
0.000263715666222313
4.08059323172555e-05
3.35273561392543e-05
0.000246806883605043
0.000212275165295845
3.78715474641674e-05
3.8985339370444e-05
0.000204284201539382
0.000265645007259377
4.76838943280544e-05
5.93986998057098e-05
4.76854945924085e-05
7.56744412757326e-05
0.000303600059945391
0.000370188116188348
7.98108577161983e-05
7.31528589501265e-05
0.000430543613689913
0.00057577298874853
7.03243877186618e-05
8.11308758637124e-05
0.000556456062619774
0.000438992268752193
8.01516768264215e-05
0.000373472603271001
0.000294556548492389
0.000184153154816139
0.000124809744659471
0.000137441150029815
0.000211763865667981
0.000223256525322375
0.000156885619899479
0.000281562918397744
0.000472841901889035
0.000651776053982845
0.000108925263584621
0.000110072615700882
0.000962757665889705
0.00158468066065078
0.000113289746616995
0.000113806892092547
0.00159253092660432
0.00169964907656662
9.76796278375704e-05
9.76090822611886e-05
0.00316825048294987
0.00304190876460239
9.69322647682319e-05
0.000115208506121258
0.00303977298404562
0.00171390188348194
0.000111094753993629
0.000112611764935279
0.00129387012886048
0.000935935878961961
9.50977293766369e-05
8.26784425865289e-05
0.000963835404317991
0.000412061019585306
7.36010912867145e-05
7.28027704105527e-05
0.000425901258650031
0.000409507443079689
4.15972883935241e-05
4.91287627706151e-05
0.000464047027919714
0.00044481034387399
4.79973983843606e-05
5.23020173462765e-05
0.000328626496480381
0.000287865092127013
3.93163475523876e-05
2.58804520162124e-05
4.45239089933154e-05
4.64414772814746e-05
2.96988794172048e-05
4.12357558512315e-05
0.000233912198628479
0.000200681035827805
3.53628803879368e-05
3.02280229432497e-05
0.000230034373108119
0.000189769020496483
2.84307218456378e-05
2.34432686071283e-05
0.000175332101485214
0.0001485793103832
2.28031061251223e-05
1.7468922827874e-05
0.000125672693653532
0.000111472972711143
2.22502126366814e-05
1.82610469847629e-05
0.000107183199545862
0.000108778274735569
2.23791154191191e-05
2.3272778703621e-05
0.000107627479934763
0.000106084976436284
2.2942198140725e-05
2.24630491041801e-05
0.000106109652216492
0.000107894783157894
1.8202505507731e-05
2.24012108342281e-05
0.00011729975722302
0.000135144634601455
1.78601628472813e-05
2.3231958492849e-05
0.000154951709639978
0.000188898798530904
2.53582426479775e-05
3.08832015966729e-05
0.000212683496103185
0.000181783334619335
3.07720263616822e-05
3.29872540161473e-05
0.000175140620874857
0.00016064130775225
3.89356119315088e-05
4.30045802876152e-05
0.000196535584803848
0.000204851934756369
4.97763626380682e-05
6.12865718387538e-05
0.000293336179897795
0.000348694276381733
8.32396348715413e-05
5.38964363372441e-05
6.98316034718488e-05
8.08921207159988e-05
5.87392838647632e-05
9.37584858407106e-05
0.000449192167867136
0.00055178893422682
9.58280765866369e-05
8.75419079602685e-05
0.000419479856557869
0.000454730144629169
8.08932082199409e-05
7.62006635914601e-05
0.000495920712567059
0.000570521619972247
7.96011590346507e-05
7.68519619300888e-05
0.000571132627940909
0.000522110344534091
7.24894324225583e-05
0.000507799027168306
0.000360847542040427
0.000410906236662714
0.000383200961019532
0.000434746775873267
0.000508603815113841
0.000626669128240967
0.000111642794551947
9.79952132935086e-05
0.000760995157059777
0.0010569932508496
9.56929562996082e-05
0.000816111163326712
0.000766902347687397
0.00072083602043799
0.000944587573741861
0.000110152698193822
9.55791477408614e-05
0.000977361747285042
0.000973242624736126
9.27832940954575e-05
8.84785398356651e-05
0.000949220381590181
0.000595064498668505
7.66659682232295e-05
6.59909746757157e-05
0.000713662220482539
0.000640001978547956
5.9634801261062e-05
5.95979462253491e-05
0.000727445733075352
0.000593577896119749
6.46398317109409e-05
6.52991340843222e-05
0.000429568688964265
0.000345311863717367
6.14374125611613e-05
5.35251844330827e-05
0.000332387641930756
0.000304410881500608
5.12192067353643e-05
5.02361855746169e-05
0.000255822778555098
0.000220525634137524
5.84260085916198e-05
4.91084498444349e-05
2.98512362685481e-05
4.30388752931982e-05
0.000216303147248822
0.000181977216154341
3.62428954725307e-05
2.86912621560076e-05
0.000197017017394929
0.000190461096878898
2.44380830557428e-05
2.08170157841562e-05
0.000129837886509994
0.000145717597186667
1.61715940815974e-05
1.79067511331973e-05
0.00013281606900997
9.70092107961826e-05
1.99275717031605e-05
1.60195664359747e-05
9.71379237202849e-05
9.48221773337845e-05
1.92245545112528e-05
1.67091904974673e-05
8.56736838745291e-05
8.06481242213012e-05
1.90498137614081e-05
1.69399912634344e-05
8.35105678473947e-05
8.96910323271532e-05
2.76199855508919e-05
2.08041386932794e-05
9.73799792008958e-05
8.18096450342689e-05
2.49271631137149e-05
2.61466114289693e-05
8.69324010391575e-05
9.39485289694671e-05
2.98563727913211e-05
2.78014603455617e-05
8.95828050951588e-05
8.61668104112993e-05
2.08812953334095e-05
2.47621939465285e-05
8.13028049156862e-05
9.26514151630145e-05
2.03076554704773e-05
2.29762264196095e-05
8.94426702061706e-05
8.31827616000234e-05
1.65495207524814e-05
1.7311515127127e-05
8.31354375591307e-05
8.75751863045768e-05
1.70427140541782e-05
2.0653758802217e-05
0.000102288217923643
0.000109447230315517
1.66186168497012e-05
2.03574035001974e-05
0.00010707057740896
0.000146051198066158
1.86402390717924e-05
1.78380346688279e-05
0.000182627119030072
0.000153827772478862
1.86607472202353e-05
2.08093301114302e-05
9.62517002001571e-05
0.000102133129674456
1.5759146663301e-05
2.25067025194795e-05
0.000104128416783658
8.96678634408742e-05
1.8111379225774e-05
1.78592001408884e-05
8.17086564754434e-05
7.95998318782992e-05
1.67227526985474e-05
1.96916524718364e-05
9.02619008396146e-05
9.60972181206526e-05
2.07979772306944e-05
2.48846281139151e-05
8.48563134578965e-05
7.92462686131875e-05
1.95848955139792e-05
2.51828551592064e-05
9.5024598103039e-05
9.81118066209752e-05
2.60152910042795e-05
2.46617064326244e-05
8.74762921574988e-05
8.88263961844876e-05
2.60219906069958e-05
2.08583417468636e-05
0.000103847668498251
9.40894251536623e-05
2.10887162046357e-05
1.63230704764719e-05
7.89896737080735e-05
7.92216285565506e-05
1.83472612900801e-05
1.77184900146329e-05
8.82394231991171e-05
9.60733502097819e-05
1.99278028113507e-05
1.56437953156739e-05
9.13799002093242e-05
8.89106050763713e-05
1.97561219228448e-05
1.8515482147137e-05
0.000126996598412225
0.00016082532256928
9.15953064856233e-05
7.98708545580207e-05
6.10165914607072e-05
5.94338713870872e-05
5.97185110278718e-05
6.74187724886467e-05
8.72089930200155e-05
0.000126584463898871
0.000248338947050637
0.000334350286916599
0.00049903249746826
0.00065330849464896
9.51475597954087e-05
9.20630112961643e-05
0.000668950600036869
0.000555478816628928
0.000100822152271874
8.19066763153942e-05
0.000493423999518002
0.000429926355962443
7.27290414851369e-05
7.00776806560309e-05
0.000460683382416241
0.000472263092312463
5.75411908507059e-05
5.61370297398153e-05
0.000519786257714105
0.000410118837629594
6.17396528735927e-05
6.59712879950488e-05
0.000358402667617655
0.000297364228815958
6.49558335224803e-05
5.75389715226514e-05
0.000266763281633835
0.000272717727654027
5.66421774357616e-05
5.23388976171928e-05
0.000212363026030196
0.00019756129779844
4.855221667917e-05
3.41885780631649e-05
4.49758847425419e-05
3.98001766463617e-05
0.000167975164889065
0.000185833868887111
3.0780731029725e-05
2.28857444661808e-05
0.000154439929514072
0.000166642059181608
1.9208338784251e-05
1.96952617020379e-05
0.000119746867073218
0.000108200689365152
2.18963563867569e-05
2.15549180975042e-05
9.83034506537671e-05
8.37783763838647e-05
2.34859125477325e-05
2.27378924607353e-05
7.52285512400335e-05
6.95598250088483e-05
2.25754053335231e-05
2.2916072287187e-05
6.0623997206676e-05
5.4272651676981e-05
2.42041362608675e-05
2.39552031390673e-05
4.96890595172964e-05
4.536417716824e-05
2.31804813469376e-05
2.10000400602184e-05
4.30815452343558e-05
4.0115468380404e-05
2.30168009900748e-05
2.4641235033062e-05
4.05028186941297e-05
4.0299064898871e-05
2.46372959557118e-05
2.36737160928158e-05
3.98812550600872e-05
4.12506041615784e-05
2.26794692898792e-05
2.3351854707275e-05
4.19277264256002e-05
4.5402705932213e-05
2.24695780348684e-05
2.50580971957034e-05
4.99225928521384e-05
5.55986555253543e-05
2.38703787079374e-05
2.28777691671227e-05
6.15870864830214e-05
6.68122515198025e-05
2.34085532200453e-05
2.40288557573015e-05
7.66080107219051e-05
8.61018688369773e-05
2.34648108562675e-05
2.4034941831192e-05
9.38560404428067e-05
0.00012012685577727
2.33388172063467e-05
2.20842107702727e-05
0.000118126789954343
0.000116835204144349
2.17062167791979e-05
2.24551301497532e-05
0.00014932716908898
0.000142255565669366
2.8507376145224e-05
3.62144864336027e-05
0.000141295371062102
0.000153212459641892
5.12637366435697e-05
4.9083681471533e-05
0.000173696578272865
0.000182805511972919
6.38769237666417e-05
5.32893481843837e-05
0.000223599893392125
0.000251281670961926
6.21428049031791e-05
8.31331170471419e-05
0.000365293889295956
0.000470706736037608
9.54272298023705e-05
9.10859009748305e-05
6.14304707454968e-05
9.86517147255685e-05
0.000618696726929069
0.000757131201298584
9.41206025621066e-05
8.92541477618541e-05
0.000689970795784709
0.000667554573029095
8.33456807448125e-05
8.07586468667422e-05
0.000591321933092589
0.000678784145548598
9.22970848500222e-05
8.0893808475241e-05
0.000732862242657978
0.000958953340241383
8.14195067471017e-05
7.12051909673458e-05
0.000641276328289044
0.000650487157569093
6.57841310673647e-05
8.70937743667968e-05
0.000560913310078953
0.000786493014115411
8.61399702114446e-05
0.000110727158189362
0.00120799914459367
0.0010969847831427
0.000117000550713616
0.000139765600553974
0.000968374470566287
0.000852468613729781
0.000143601631173613
0.000119838891000257
0.000573440984519067
0.000532835956050158
0.000118066993029405
0.000108053912990128
0.000614268461960246
0.000430115338319981
0.000394793523516361
0.000431390746906614
0.000548582158692434
0.000107505877835736
0.000137660711866541
0.000817771491151307
0.000874690997977706
0.000117591559837945
0.000103915970378567
0.00086281593687583
0.000604271576679634
8.49166872811882e-05
7.76090118877451e-05
0.000430892176543621
0.000449095457944923
6.85312346301582e-05
6.11419452130882e-05
0.000429294429240139
0.000477537911451648
6.0335607560552e-05
6.91009640269607e-05
0.000494590197815616
0.000382173513027717
7.59828668948996e-05
7.48961211053258e-05
0.000342778991625389
0.000285220001372244
6.78478258904191e-05
6.82004354970538e-05
0.000317485989595973
0.000225804496434614
5.8679415785927e-05
5.42296128717134e-05
4.35054022146499e-05
6.050435986493e-05
0.000221328073308016
0.00017196657787007
5.49438743983008e-05
4.79388606971179e-05
0.000186163378869987
0.000182261279626259
4.86317078986072e-05
3.63529246877031e-05
0.000100604442552276
0.000113247066247008
4.8396567598695e-05
4.9162427695306e-05
0.000106698262016211
9.60255575052741e-05
5.14090244409897e-05
4.53431059670182e-05
8.08090571329008e-05
7.85453126248656e-05
4.09493526438277e-05
3.82137881271467e-05
8.16422578723422e-05
7.84039852744776e-05
3.84896461190185e-05
3.71408240193454e-05
6.9324657770619e-05
5.43242590463698e-05
3.54262858543666e-05
3.52388023648592e-05
4.48344220923467e-05
3.83196448318557e-05
3.31865032767643e-05
3.1474299368947e-05
3.47589094060711e-05
3.26742252817344e-05
2.94575766158487e-05
2.88838361414881e-05
3.15430288478674e-05
3.05393693494856e-05
2.74102065356122e-05
2.74476026023547e-05
3.01575026347187e-05
2.96911520304234e-05
2.6286477596552e-05
2.65911620063471e-05
2.9737616204809e-05
2.93270036870618e-05
2.64947685875701e-05
2.62919905866399e-05
2.88853200842385e-05
2.87137017546666e-05
2.73201318470626e-05
2.75656060003693e-05
2.95442675164528e-05
2.95051818456601e-05
2.73205197138467e-05
2.70978760614265e-05
2.88182129093406e-05
2.88710602966668e-05
2.70444741437204e-05
2.70974964688871e-05
2.92746016980486e-05
2.95247997317106e-05
2.63479990927536e-05
2.69562882615104e-05
2.89911622248494e-05
2.94132970712824e-05
2.75157554266442e-05
2.73177102987819e-05
2.98160976130441e-05
3.05954202453739e-05
2.8359209961898e-05
2.82154818842788e-05
3.09544983609293e-05
3.19328665051453e-05
2.97958910783396e-05
3.04817353996963e-05
3.31598730418291e-05
3.54177114277639e-05
3.25349730263999e-05
3.38536207308102e-05
3.90688847414756e-05
4.56588315315142e-05
3.6181967129829e-05
3.67890263242586e-05
5.55360922224345e-05
7.1494424618622e-05
3.8955587350789e-05
4.03933642527924e-05
8.09158398230291e-05
8.65904635419483e-05
4.00014836605809e-05
4.30406342603361e-05
7.98072216093197e-05
8.47288956982007e-05
4.58907245351936e-05
5.23453849918548e-05
0.000106719224265931
0.000117169372473394
5.31631419873268e-05
4.22865640416373e-05
9.54786184724495e-05
9.36301010352904e-05
3.26816851652904e-05
2.94074634379439e-05
0.000103049823029474
0.000101410986456637
2.53919333115239e-05
2.66269632339557e-05
0.00010851244312462
0.000112593716525852
3.14150708511476e-05
3.91642306076377e-05
0.000108561531886629
0.000100904527470676
3.72565195940866e-05
3.25230492887705e-05
8.13390626957206e-05
8.06471383401639e-05
3.7481752026449e-05
3.16429340215253e-05
8.28817401454289e-05
8.08090329486256e-05
3.20617917813371e-05
3.11972696105929e-05
6.93584402616007e-05
5.48714465468021e-05
2.92857886172999e-05
2.89997774112404e-05
4.40143814182512e-05
3.71251005587007e-05
2.67704155259027e-05
2.61472158154035e-05
3.32739105589533e-05
3.07046205603359e-05
2.43056254462493e-05
2.41615679479741e-05
2.93167342933353e-05
2.82286371614657e-05
2.26070745549846e-05
2.3000362402444e-05
2.7807110597826e-05
2.71425897540648e-05
2.20636052317637e-05
2.24267802450326e-05
2.68119991196625e-05
2.6351699009622e-05
2.19875955087408e-05
2.13770127345907e-05
2.67645489890013e-05
2.65380935375096e-05
2.1947808221388e-05
2.2091547029833e-05
2.60974141118708e-05
2.60556582044036e-05
2.21286425055976e-05
2.20344322150579e-05
2.66586039582634e-05
2.67208282735824e-05
2.22271683989882e-05
2.22839377505785e-05
2.61039102649798e-05
2.62601825597923e-05
2.148050621247e-05
2.15737469424851e-05
2.65767521696813e-05
2.68865598236514e-05
2.16001338336549e-05
2.13252321036578e-05
2.69310209390516e-05
2.73988372942776e-05
2.24394349299472e-05
2.20822093713544e-05
2.78198080679591e-05
2.88339051004859e-05
2.34592880889229e-05
2.35733359488854e-05
3.01050972795474e-05
3.2474113455385e-05
2.54627437234109e-05
2.63401001043156e-05
3.6247526196156e-05
4.28095935323733e-05
2.82611980558384e-05
2.82264214930103e-05
5.37996680322856e-05
6.69015491343877e-05
2.98601260561771e-05
3.07899846017398e-05
7.78514575093397e-05
7.88362664181447e-05
3.0305775990477e-05
3.59704334537227e-05
8.00130174696005e-05
7.83491254590416e-05
3.24808402439831e-05
3.06136368541931e-05
8.12502363153875e-05
8.04278329720099e-05
2.63745469214898e-05
2.71228283352903e-05
6.95918370970731e-05
7.02306316491136e-05
2.65770953199053e-05
2.50102077323318e-05
5.32527334370942e-05
4.6735901451199e-05
2.52849182354634e-05
2.34712292562838e-05
3.58681530185643e-05
3.39479757967996e-05
2.32576585428181e-05
2.1277595795193e-05
2.99279728326827e-05
2.92261676896599e-05
2.16521723930687e-05
2.01160504582403e-05
2.76398785781805e-05
2.72374157756826e-05
2.08567498450446e-05
1.95538830455254e-05
2.6456528784313e-05
2.66815627335658e-05
1.99443298059476e-05
1.99459196388665e-05
2.62132836673909e-05
2.58202565644958e-05
1.98619930497307e-05
2.0584438667511e-05
2.54693428742075e-05
2.64203279222486e-05
2.04320969189167e-05
2.02799122565597e-05
2.64302853010041e-05
2.54220070499146e-05
2.0552556108541e-05
2.04817235242888e-05
2.54911705148084e-05
2.60983433592878e-05
2.0271053401465e-05
1.97151366427381e-05
2.61937076001692e-05
2.5795547806837e-05
2.02880959728989e-05
2.07757243588755e-05
2.65438812936478e-05
2.6820328442428e-05
2.02047549921786e-05