/*--------------------------------*- C++ -*----------------------------------*\
| =========                 |                                                 |
| \\      /  F ield         | OpenFOAM: The Open Source CFD Toolbox           |
|  \\    /   O peration     | Version:  2312                                  |
|   \\  /    A nd           | Website:  www.openfoam.com                      |
|    \\/     M anipulation  |                                                 |
\*---------------------------------------------------------------------------*/
FoamFile
{
    version     2.0;
    format      ascii;
    arch        "LSB;label=32;scalar=64";
    class       volScalarField;
    location    "1300";
    object      omega;
}
// * * * * * * * * * * * * * * * * * * * * * * * * * * * * * * * * * * * * * //

dimensions      [0 0 -1 0 0 0 0];

internalField   nonuniform List<scalar> 
162506
(
1.03451202918657
1.07662311728685
11.7856350588843
12.4495954131275
16.6335713713975
14.2585702557856
1.59027307906531
1.21832561414566
12.9040127308183
13.6380659167922
14.1861245365746
1.10881776852367
1.11131671456053
1.01921527675704
1.00297988544959
1.00607041862812
13.0955832763031
12.3548788666193
1.02202879111173
1.46606883993785
1.66572418436423
13.3401689910113
12.7729296033213
16.5121417490398
15.9606933542544
14.2447932306083
14.3964001336541
1.00632425980391
11.8143756005502
12.5091826997885
1.00241108878467
1.0002662292016
1.00199729986881
1.00002296010652
0.999894474234481
1.00379889659582
12.2940992936277
11.6840030527126
1.00902037420037
1.61901817823095
11.6729974823203
11.6196993681845
1.47102036470901
1.67965534804832
12.4313224247181
12.056006449871
1.13996045866041
1.65958996361143
14.5181251511239
17.1148223182753
12.4965708440797
12.7377024607425
17.8384605426099
14.9943019313567
1.81332578279363
1.52610735717882
13.6490020833961
13.1535638424025
1.44843108096361
2.41221535893117
13.8170718817604
12.6470113421005
1.60132892448042
1.03328993132811
1.00676620386933
13.9019360175459
13.0361243835078
11.6869158285128
12.002458079356
1.00216325208581
1.0081641506547
1.00253207063083
1.00060263425872
1.00199220294348
1.00655249498889
1.0076102980909
1.12008346607696
1.31298973045769
1.84971892576053
11.988451982703
11.9532604552992
1.53239975457429
1.00559835838019
1.0017903411166
11.8114411979085
11.6054414547096
13.1762210795332
13.910896789963
1.00388334448246
1.01000308580038
1.00011784348946
1.00011100403399
0.999955677230349
1.00000193711792
1.00047016988118
1.00002764757965
0.999912165974193
0.999839472178531
0.999860262841076
0.999923114067299
0.999913058356877
1.0000474617838
1.00906651523013
11.6805826012202
12.289622274173
1.00372043456235
1.0022755071716
12.4965942627689
11.8041479534055
1.0061999487672
1.46887978993555
11.6100200336912
11.6697585461616
1.61850720256772
1.88056697436566
12.7244950014607
12.7292531831728
1.88180460458585
2.02042430767901
13.4199647131366
13.009607944093
1.80742875624339
1.21735532341145
12.3969386355835
13.5338462800117
2.28593354371445
3.11166012508206
16.230915252078
18.9490407304093
13.5103109465152
15.8230913718155
21.7773407540522
19.4480024039871
5.72828578951539
3.60465776022737
16.8257458716021
14.6522834134561
2.33572688644052
2.66058174227537
15.5961451549104
14.9065283904051
2.43031401399305
2.66617874425011
14.6605835822676
13.5245928942735
2.52094051138168
1.83661054215124
13.2115017930067
15.2974364643401
3.1940550673515
2.07702397980081
13.2957415596816
13.60206854021
1.88366948876349
1.01321996950872
1.0052559123851
14.966942403066
13.9111835184416
12.8154071749523
13.6253564120398
1.00477211845124
1.01060947376938
0.99992517136207
0.999940208991847
0.99991163696592
0.999769574176894
0.999803011610895
0.999922044674935
0.999975905101423
0.999986249687347
1.00050476733433
1.00007370542394
1.00035607505139
1.00213519563687
1.01995894351253
1.00330942845736
1.00433217679296
13.0739494161857
12.3333042261622
1.01948376714465
1.07035618293954
11.7628798267809
12.0304696502685
1.13311875910064
1.6763621993815
12.4187726859808
12.9948433706526
1.80499670049599
2.01896912371406
13.4132758703309
14.6137033070521
2.73500618835955
2.74788054478245
14.635264710137
14.1965462043403
2.60861913133127
4.38031139014262
17.453208357197
16.5670882836278
4.1965022370015
4.86903572462981
19.8262539453765
20.3775613504077
7.56520099939995
8.23107825837477
22.4225978260264
24.5387221668642
7.94556415363983
5.94798184920954
22.6293715721602
24.4155471074287
6.83574567201774
8.93985320433157
32.1975029924778
38.3473172898553
11.0840035879292
12.382006015332
34.4616951083706
37.3121727212898
54.1380806792484
32.0018240845962
13.9694250597419
12.6385540358653
30.0771401189654
28.5536984856404
12.2445111467259
11.8792184702407
29.9721469880561
40.5646427796233
29.1483634256698
27.4414192319595
9.20522851684989
23.9757796676171
32.5244486379532
28.6462769292574
19.6722178347259
7.81894072746519
24.4908005427215
20.6068630076064
6.08286326918191
4.32475537255094
18.8775285143303
16.6885252129977
3.19989921107181
2.9598705985039
16.0787425130868
15.2883808171185
2.7558271496063
2.07570440766804
14.8633724919435
14.1534855065104
1.98352832551655
3.52580508360331
17.1323337826005
17.137940078044
3.48581549163826
3.09091870218238
15.3369710349919
13.2263776962598
1.69013606752558
1.32003297418308
12.4084189008806
12.4014253939717
1.32872153669767
1.01034391215236
12.8009993818439
13.6086987892245
1.00482128756742
0.999955115211723
1.0000512421387
1.00101020937595
1.00003225836083
1.00459149611533
1.01696315655121
13.8699302753148
14.918294205051
13.8559395915675
1.00534291662542
1.01138202418797
13.1299495721444
13.2725958496027
2.09852987513594
1.5431459808276
11.9440083278444
11.9906311192024
1.85635139734486
1.0079028272325
1.00225612354215
11.972540534123
11.6715595078278
11.5794549862337
11.7742794647415
1.00203038332916
1.00591019173945
13.0125232810615
1.03252479553173
1.006435210936
13.8643168234742
14.1613283691617
1.10204438276406
1.10379123479694
13.43663625108
12.7321862317964
1.31369690015311
2.01800056580604
12.595431967508
16.0140905426511
13.547855047009
13.2671853449646
13.7992790576001
1.16681142483436
1.15138146676912
13.1131163322866
13.4797177953002
15.4106460653519
15.3805359919331
14.4627943558195
17.0622309220992
12.4681536793828
2.09642045005995
1.55147438275078
13.1431948316867
13.6570878952703
1.65305250472961
2.2625789841204
12.7038609239716
17.7920614242423
14.9512370159594
16.2934167229945
18.9427583368583
13.6840750517904
3.7551297892101
2.36339193167375
13.5186576184993
14.1596725167733
2.5923978699245
4.35626197129581
17.2877626055372
17.8695762628962
4.46162404377103
4.48548423187902
17.9414420667228
25.49986132326
7.22180176134572
9.7564113584571
36.5057826127482
44.8663875164803
11.2437690291886
10.8285963260015
43.1600878064302
52.0919628744087
16.2505967355035
16.1000488332068
46.9553732968234
40.674607876951
15.540711684625
13.9853392895259
34.4361448860692
56.5132252408983
41.2215383887051
43.8617337401457
54.5478844536132
36.0525518972008
15.0804582049302
12.9390735714913
34.7741438980969
32.4200852737806
12.80326367981
12.0704067373749
33.9711739414295
32.0831862872508
10.4322917874042
8.95277155060632
26.6986590316912
23.899823750142
6.92379173974022
6.47923387139286
23.8072408275179
21.7573919808344
5.71754545056261
3.67188125273611
17.6668638135125
16.8705685564518
2.62162426171427
2.1903425149028
15.6088466708913
19.5022688859856
3.86919324270313
3.73974771955882
18.3531721266099
18.3337643787907
3.74554236936397
2.04823524878046
14.8214525940604
14.0847841434908
1.91174631230838
1.91593032218941
14.0793628692637
13.225005023305
1.69043274497082
3.10442893994301
15.3372085947281
13.5831059916586
1.91021964224701
1.25922707951704
1.00128800203069
1.01041982275768
1.01817120840585
1.0008196613903
1.00030749253108
1.00016537273106
1.30022770354647
1.11919442744915
1.35729783897933
3.2176158130596
15.2979870521801
13.2092301889162
1.84654269156695
2.52976557000769
13.5313944487617
13.8231920261217
2.43046099685548
2.47206730919729
14.9296655430706
15.6585127619896
2.7600649856233
2.55229740562253
14.7300969254996
17.168559058181
4.02696504830042
6.29872932597127
16.406174016976
21.8708710821012
19.6319332993436
25.073345339442
28.8459076169371
20.9199105581293
8.65678947903453
8.15125662846952
21.010722578385
19.7414958328631
4.89569609082222
5.97745994129078
22.1123574126674
24.7820776297504
8.62718261488897
8.8970751428751
23.5316509734124
26.0070215139323
10.01672881231
29.168706527109
33.5296887471263
43.4680203064723
32.4679490836282
13.5294068804369
32.8248563453761
34.4756132751604
14.8066081261717
15.9710237562421
39.0587223202591
39.4440986953781
57.6531929097817
41.1131905185273
17.5165130335026
14.9899785452249
36.225812207354
38.1869800295682
13.0361113415523
11.8962283494541
42.5460501898257
44.1945854508737
11.7011793884256
11.3351388553404
45.0372979856062
45.3480825162132
11.292822508525
17.4200845754073
54.1898830337049
54.0371551901062
17.2444566915772
23.3488853219826
71.4080258489521
70.0012411987545
22.34473665012
21.5128597156296
67.142707766537
62.6352237886612
20.6829144972786
18.4592887841673
57.2292523271953
50.6729077171168
18.5464221383732
20.9522969082774
59.5347321068593
47.0135430822514
56.013985130944
37.8577146829153
15.9107746560538
13.1898914556471
36.4489673126514
40.2648585813208
12.3539544469023
11.2925052285521
38.4663988507212
36.0894825583116
11.1352752513323
8.26561712726339
30.448998896581
27.8445322383163
7.59305821072046
5.11682335511026
3.31856174723548
1.67695288280949
1.78023865564197
2.29299898990065
4.54839229071973
23.4465093536623
22.5422259364567
4.70016763178349
4.45784852424827
24.4092447663373
26.6804607498212
4.93950175831959
4.90121047379772
26.0805850133569
28.2894823367883
7.48796091295817
7.23712708323642
29.0030929614287
30.314825920029
7.14967429867899
8.75552110239252
33.1838176895219
30.6036987978645
9.06132888968178
7.05130089645732
27.3166801878939
4.74709112550658
9.43928762264708
30.5868849865552
38.1763009187197
11.7933171426634
11.1791561546867
37.0490420353803
31.2546467149339
7.74485580514014
4.84599563148945
25.412598667231
25.6192276355501
4.79478153973071
4.8256467147725
24.6199790263448
22.5845754964768
4.69210653095791
3.97865044576143
20.6809674722685
20.6445231948306
4.00333817928979
3.88741089259214
19.4683299967172
15.5074318998374
2.12247394054252
2.12948017374757
15.4929360297364
14.812719134051
2.05691020270203
3.76001821065561
18.3120071639285
17.130090423326
3.50282780593229
3.53834575901531
17.1283024772913
14.1431000182611
1.99326203493275
2.6784540660847
14.6655905331708
15.2818618304549
2.75807325192561
2.94221361846735
16.0348093929874
16.9463095045498
3.51370414015964
4.74530563905275
19.435372388223
21.5864653616826
6.78876247254116
10.0436329170821
28.8417744083151
31.7880114462846
13.5132470860434
15.0205371641562
40.8202645928334
43.2491933140308
16.7972567229981
16.4157607164798
42.3818057326557
47.1531621578621
20.7875738378953
20.8368976057071
49.8185235521964
47.5357970675961
18.0413182591989
19.6511931188199
52.3308323844519
61.86526282004
85.4119896831351
76.292416641559
27.927332082305
30.6902779544415
78.2894884356024
71.3670002927661
28.61658974253
23.7696527971586
68.0228896120472
85.5399766694152
55.5442228545531
49.1746801328404
73.4748124919877
53.4718319474184
23.5459273981124
21.6423660225755
48.6659206301241
49.2830976160669
19.1600381832181
17.6699336638526
52.2891882924403
53.3300288376918
17.7646199014607
17.5231358334123
53.8435958220185
70.4460792241522
24.2166483431841
24.3449160917154
70.818876599668
71.1282850993192
23.7022663197941
23.8433951603572
71.1739691875946
96.363220747178
34.5801885072895
33.8794218605971
97.0487802063124
95.7653959633912
32.5659591635013
30.6831486665296
90.7236262477864
79.0961619434655
26.2234912792378
20.5291445156002
66.0003771052003
73.8013881321955
22.9465093745524
23.3492604127546
80.736545598086
83.7866274924544
24.3305935927511
22.094283935961
65.3060538720366
49.3643910494345
58.1640438066082
39.2757688912241
16.6798207479666
13.482410364052
37.8996939236954
42.2948765986063
12.6093673930633
11.4101261972255
40.3310060506508
34.3251692921657
9.19887628950391
8.64913802716575
32.879270362357
5.82423209132032
4.05715807831062
3.84292211936374
4.60350393513875
2.65926503894056
2.29887019555163
2.06317214020924
2.2286390048413
1.45131335377444
1.27249912577023
2.34865252766848
17.529296795055
16.867690221151
2.23263461840112
2.16980223697168
16.1810363718363
16.1472528567767
2.15325468752867
3.97513637983894
20.4910585140887
19.4159817452009
3.90510038026345
3.82423216569785
19.4295310724775
15.5312526964161
2.18301530093813
2.89739031049788
17.1087336176739
18.0302875079495
4.05210197453304
6.48932009431936
23.3511818460618
25.7298556462422
7.96640807029505
7.66112650109859
25.6651725131279
30.3760622863153
8.71354614334158
11.6669915483798
35.3628688407869
40.2743381618773
11.9821412241743
16.3075068244415
48.3624624392416
56.2101156157964
18.9528924014432
29.3447202571761
83.4767402578244
96.8270212980878
67.1671027726685
65.9371881185379
95.6118098993849
90.461085743582
30.6102026051005
36.3416697891321
105.461050036338
106.088168452174
42.175083724713
41.2236982279532
107.557665605731
131.397133990574
46.1210407069684
53.1626739031193
147.58597569767
142.414356496613
50.8700192065476
51.9927924985
141.38618383503
143.798617346309
52.510539850114
52.3915062143074
143.927701919735
145.0194841484
52.3305763695287
52.5675495633375
145.251498077812
145.557552712044
52.7627584398245
52.079406360043
146.106871230241
146.240087603556
51.5399867611608
50.2752847607899
148.137883687184
151.469707951605
50.3428843930973
41.4338257431366
131.417072020128
96.5424932777364
30.6199323310324
32.1092488169818
108.313068636989
113.732000011555
33.8252147142979
36.1217219940392
120.508358801998
86.6131973366244
24.7231180555756
25.9849664219044
90.2433730968053
69.9004055415268
23.194630468986
17.3756428591228
40.7939291458264
61.4849915855266
51.7823432781473
54.4746110845806
65.6015414865202
42.8253372220983
17.8984492877416
14.2890586726658
41.4654314254895
39.4150454338796
13.7622918239894
12.9693188417214
44.3946518261689
42.286993585691
11.5911594797954
9.43667226298325
36.3331726956616
36.597703712225
10.6975896166883
10.3442586129688
33.8866449301777
5.7211761740129
6.36125140823198
4.98220838916393
2.31400918348933
2.48120117588953
2.20186278665441
4.32154908105979
24.3354898319675
23.2235157007504
4.20939922002289
4.13154750013813
21.9532225109125
1.91441876381961
1.16200186761548
1.14771622581057
2.21398078359379
16.7715849012113
21.570360937272
4.02313292228823
4.03205351606232
21.7662242685366
19.7543263867935
3.56331591890408
4.4795198171436
23.1043342924444
28.0427444870032
6.95380682306916
8.82404272843458
33.1647962326422
33.8774170762009
10.507557699048
9.0402032114557
31.3622303586261
33.1523876410373
9.31361337667194
9.79467545637917
35.5301703718196
43.0269036518174
12.5335890303881
17.3009399317635
52.3142484779774
55.2909854266698
19.3624976354504
19.5949793909931
57.3791746200037
67.0146966443094
97.1082277978427
95.2691028597265
31.6825325271684
37.90856213517
113.882880520803
127.135279741449
48.1592494261204
53.8966077648253
146.722156122483
192.674273228999
59.6760254052892
65.89306793576
258.228695606745
295.104641856206
66.862328228336
70.6868820500426
283.723386257244
277.245002146662
68.4135289458466
70.4931736888177
277.805575666694
276.995975490477
70.9450527276895
73.6721045336795
280.32284797316
284.994403406437
72.879407640795
72.5323392416493
286.323804483884
286.235815697184
70.9618331511905
73.7468455066463
287.306618532396
289.913758386086
72.8995737649174
71.7510843529144
290.097844741607
290.149139883463
72.6999647951237
73.3847596047752
289.765755868374
289.263412212071
74.7132664834744
72.1007206897826
288.060253846184
288.429892412101
72.8346052526905
72.4653043922384
286.620449255793
284.162978076771
73.0849528147686
70.4401454186614
281.26099658279
282.265489570343
69.6576445688935
67.087886379999
281.873017943138
287.210588741101
67.8254095740896
63.75821457531
298.842529453313
259.128305289348
62.448617971442
61.9940431994309
247.734155533089
238.770875304426
66.306256448662
64.9468009197395
232.99015927067
230.224786310322
67.3494068828451
67.0329035217241
227.439179349083
227.758368294102
69.7291110611773
68.7142866212019
228.150311589224
228.376414890118
69.6243274648817
68.443344885451
227.497093242473
227.751646818281
70.321838426912
69.3393961195599
227.563853943119
227.721254819367
68.9130354838126
68.2678551477104
227.470100643571
227.231341409954
68.8015832563921
69.2236017477147
225.632525847478
225.170909838957
67.6403239625139
69.2622682459423
225.511152294534
224.945851899559
69.0318422507139
69.8443866226125
221.68947113876
220.502327187569
67.1691058587743
67.7222292257443
222.220970662165
224.422384997349
65.7289669963686
68.8750690499424
230.974792843645
242.158163700278
65.1558665180583
66.3916491538337
36.5767044432865
23.9404774370078
13.298798570553
10.5587369731933
7.12126325371319
6.0111991125188
3.57322494542183
2.8010125869186
2.46880284847679
1.85860253568764
1.802319290191
4.13579601024414
22.6569468523048
23.3843105130536
4.3267902643286
4.54528550413729
24.9493386834378
25.1188076159536
5.06181652494769
6.76694143588992
32.4939019085224
30.9133922999437
6.54155569236192
9.70637634574771
38.6438511789432
39.9234963278164
11.5086383265675
9.66680142076323
34.4531608527561
36.6067832970147
10.0070307409291
10.3535394476618
37.3058093328964
45.2935727579237
13.4490121666406
19.0724188176126
57.7643742745459
62.8685009880392
21.2161034663201
34.9884217419158
75.5394238317144
105.864173687584
95.3253664169715
123.216442554424
39.701711695823
50.1070903142616
144.621665611111
191.966176763277
56.9158292056798
72.4695820041567
290.989898070878
333.521305380531
73.3967109972589
73.9649643626145
314.920764927928
298.790482204927
71.3042600778619
77.1308762137707
292.090596187893
288.671574702171
77.9755106665077
82.2330937519591
294.699206816958
299.834036134371
87.0173292454436
92.3369115713483
305.734188254308
309.694257006819
95.2443744629642
98.8516822192585
310.514221788279
310.970077283821
101.34176326825
108.623840055629
312.927324192284
316.488150745572
107.295843769216
106.306676088657
316.21914388729
315.783531318306
108.048298380084
106.348722957
315.360687794354
314.064874283857
106.471427431934
100.002998661922
312.249030269052
311.966421728231
95.2547355590389
90.9061431329649
309.700158683433
305.104806480712
87.7875113792211
83.4366288705906
297.84724419214
290.380613167272
79.0791578345053
74.3727767249825
285.151735199747
294.749364679167
72.8092848128367
67.9463079883404
311.172645270507
256.589508362257
59.2982410402563
57.6967779764422
251.845600401825
165.96768895223
44.0742839903127
47.2801660782609
174.478571456228
189.649648929298
50.5159616752975
53.9207262375301
212.501570917239
129.259360716951
38.3987604405551
40.6253740109096
140.930325273831
93.5879667557289
26.2751680059673
27.3279386152
98.4975830143099
75.2072301410793
24.0926053059214
24.6084560531081
80.7105425525972
59.0910757769514
73.2856810977919
48.9248689511772
21.0578545412513
17.1516335479961
48.0448353711012
51.6550562672407
16.1187751333762
13.4817635122129
48.5275004982235
44.4207764016683
11.8033079840288
9.65097503888697
38.1640404168869
38.5776230376746
10.773152819146
12.2295686789
45.7242230833878
43.267780278106
12.254197771903
11.3732961228293
42.1429178433912
33.3178776281146
7.09946695490814
7.11474611684089
34.2657216207972
28.459014064183
5.77124910566665
6.218250180232
28.4569212391304
25.6360039869673
4.48407936563387
2.57638874057167
18.8750490306041
18.1428309521704
2.48996079476565
2.50554302587505
17.9956476244841
17.3750985040479
2.3416744608471
1.27914599522615
1.47437738764707
2.00339650562358
4.31549074539021
23.798286857347
25.3019728718124
4.58834197604201
6.27794847425978
28.1431828358315
28.3050294255362
6.16208957058043
6.64568371262285
34.3885932828115
33.4314939196872
6.50634780313371
10.1152403888862
43.6772433217031
41.6939962997475
9.94522192755962
11.7480521116077
43.0871112665063
45.4259552399313
11.870539427823
10.2938522965104
38.2790480086782
38.9186338558873
10.827267253233
14.3196256405799
47.6419800948444
62.7655140095977
20.1227735768062
22.1192819892095
71.3772358020381
90.4915423619509
125.808128379344
101.561793740734
37.2965539872304
42.8301045436964
144.562983317576
173.324009677381
54.3110186259392
63.1308710222596
237.046359495211
343.575475722349
73.6337146048319
93.4165773836404
452.271716831698
422.296287710766
96.0175327132156
106.299785081398
424.995499814395
504.40249352562
133.468333189284
169.893856422337
641.660119837731
799.917292058626
201.949262998811
215.614190321567
845.577692960057
860.050890715577
225.877266925634
240.984308619385
863.391238319817
867.363060995817
262.732402334614
284.755876811302
865.539409365142
863.991959962348
304.460644391755
318.957574945962
858.070222438284
856.488576337114
331.697862412936
340.522068134162
850.397468052173
851.296417433507
349.614575520151
354.841113320722
848.143102074935
852.31265791419
362.014671556833
369.917451548576
852.757742641389
858.537383079652
377.945210777538
376.943093823915
867.084069030365
870.046892024328
371.519487462861
368.92607875446
866.016525577651
864.241015256821
376.389064307244
380.373636670707
863.901162685974
861.948936998346
373.260269936099
371.94630099229
865.837575457858
862.468781274293
370.221918080551
369.326788141727
864.977448379658
861.515007008746
361.088392457276
352.621353840858
863.169202670461
861.220672095754
342.844331554844
332.733043271483
866.372674967986
867.475308706298
318.845483373008
303.329325440696
874.809892044034
877.281003985536
283.091994588819
262.713180918275
881.620773576687
879.610044673517
242.625918292698
228.632637909222
876.502648941042
860.305628409714
218.181740693701
203.138962438813
810.571743613533
646.178006911283
170.919885335063
136.147231920792
518.0760883383
458.931160201711
111.221277208121
93.6686725313214
459.005030384302
325.536997640263
67.2846478232922
63.257286224874
298.850140227917
281.40019174603
61.7076495684349
58.9790532841001
265.333674368978
335.545156112642
71.249187766188
77.9849252344551
367.1366566369
408.033910109315
84.1453125452351
100.089597228666
400.156170692606
434.932524659474
121.894362420135
161.097198452182
586.84390193227
704.66154076783
194.606122105152
207.492829100095
741.609276733965
755.977939787565
216.697360231396
224.619199328941
762.068782735633
768.217328373634
239.802282829734
255.742016170012
765.928126033758
767.848415802497
273.523548960197
287.687590254479
762.042104564165
764.19285351534
300.981149241354
310.667784950026
759.403570035216
763.081258654412
320.199329928338
328.015559582016
761.596263361624
765.620626454255
336.140961033374
337.068424186979
764.341705554981
767.258039084625
339.708434306906
340.722980366021
764.118496771382
766.079421854186
347.182859932662
343.26237096983
766.624184053392
767.286944754876
337.293897989699
339.663660284179
770.472822754533
768.681505181619
343.429819033961
344.334147787391
760.744047303064
756.259834121882
337.135556556248
329.465873257425
755.258712539608
751.077632992746
322.458230464457
317.564409456633
754.028659534109
751.195394319599
308.392141074882
300.231931127749
756.740134439291
755.05595730317
288.038916152633
274.751156596457
759.417527556586
757.005710858496
257.501669620149
239.534999902824
756.891448305888
749.579425709683
222.728598357306
213.847111554684
743.694252536403
730.293848590462
205.047450977726
192.953719595035
696.144314193623
582.169902208739
159.976216304959
118.486672243099
425.995621391408
482.782972595374
148.168174166033
174.337034992612
546.401994183545
567.423523484104
184.616592353096
192.562466312
578.314238062325
582.358922105856
199.669845394484
212.113558094927
589.214057916929
589.426343975526
226.116469120774
237.87415327211
594.625330655328
591.876807154581
248.714742326402
258.639942433344
595.738784390016
591.162242234443
265.78091678256
274.124263554425
594.783401220983
592.455701371863
278.664670184417
284.706040791434
595.832228762972
597.230719810312
292.191687576248
298.06805477136
599.973349432547
606.560358402485
297.199615390042
295.30181188268
607.58585410617
605.340173349924
293.2062425134
297.007196278201
605.190865386891
604.57662758085
300.645776727344
295.833201444235
603.201034144071
605.389580340818
295.083431448439
291.61527956892
603.130487649558
603.402768129417
290.879555095921
283.537177076394
599.865085466559
600.947238538452
276.435697234942
268.223641370013
596.683465364513
600.690183028466
259.436655837118
248.6182907685
596.335047039103
600.458731556679
237.170774241596
224.742442167297
595.105666571912
597.1842873137
212.764696915597
201.138783181927
590.626691324415
586.332580928741
195.124209025502
186.934021727834
575.474857678436
553.577666327276
176.319883064817
149.412135119112
487.693682947489
400.196562228173
127.706355384561
99.8918080322172
355.217391514713
353.720265251995
88.3978964467614
79.0851155856623
319.191548400619
311.028708964839
82.9735537407689
90.5633144628828
321.749134856811
334.077945314766
96.7185286340643
141.386242494338
426.454636360059
436.097142550648
152.722398598919
170.452132109076
438.724958577824
439.459231301801
189.454316642673
205.874880182317
439.517632320712
441.61653994224
219.14188886739
224.280109866465
443.57397889775
443.578043273094
228.556101608831
226.22826266362
444.559564130933
445.629087337211
227.081014172171
226.410754878549
439.669550184025
436.446399073101
214.447635633075
203.80072742628
435.677391634492
436.134566210121
189.491256238314
171.827574895865
434.542387530051
429.816090622852
152.696519117937
139.738575361037
420.28130860752
396.049000224313
125.658283705903
97.6894197483169
351.497460367759
332.919047111845
82.6435843707555
94.6374985887067
372.416462348741
375.98809375194
87.7467915918401
84.7527196985856
403.161338643616
315.692430286667
70.6653451414412
60.0971550974038
208.496303005687
298.666825256281
70.7151429190708
79.4084606342736
365.482113206039
341.515137472264
80.2602539000787
76.0740297883043
321.633810008565
309.999336165546
75.6058514349801
83.0277430032392
313.661194521094
319.5617090805
89.0244629294268
95.2661790070094
329.376595790663
335.604374315281
103.423785225693
115.33515164602
338.852271972111
339.804140452284
125.752036497205
134.864678755163
339.15603269315
339.091092790453
141.728403441953
151.31722798798
341.227817374796
344.955745877698
151.248807334351
150.562266019602
344.514876695988
343.943047393474
152.249589442018
149.142250002891
343.551288940321
342.674416559673
146.405948499494
136.61254904117
341.49904698411
342.435637078827
125.691755952484
113.844149789123
342.475040486243
341.20306407938
103.410749218609
99.9947366431954
84.3987330840123
80.5566178136796
75.8719064868534
72.9337374710988
63.0170916601375
59.6741006234686
55.5615210620246
53.4102623075403
44.0004935308284
41.9564504825432
38.1406660542818
36.7250888863754
34.0689994077159
32.3821885299617
30.5873097597651
29.2871402483646
27.1777304514312
25.4704514527553
23.5532770225297
21.9163069982742
20.1257600838867
18.3407672188649
16.3073777520096
14.6939382476516
10.2765172807606
11.5551280927474
9.23522370330888
5.88514445769635
2.86587749071592
2.03205262693946
1.42543214830545
1.54007645601235
1.623219196556
2.63632087802512
18.788755926252
20.7416031091897
3.89659275699728
6.81272633168689
28.904783695317
37.552753542637
10.8097802491563
8.2973035580189
36.1597198218887
36.9700910681322
7.00248654280513
6.57121517484969
35.3627349911989
47.4442315189535
10.1399390606971
10.2162664787327
45.6471436927456
47.7109988752811
11.9668153545991
11.3674001098028
40.9907007490787
42.1375367337147
12.2110295245355
15.031405495969
51.2872918800454
67.7524388322021
20.8211089438119
22.721862887259
77.3087199564522
100.153027033431
144.753637480054
114.973832373958
39.0437963095384
45.1694226936507
172.721985046371
223.780410791998
58.5482870843232
69.3351341085077
362.251012354684
552.894419835298
84.8152638949539
139.861288267999
826.308478551669
775.651288222753
141.70690777496
170.661781663669
836.51957446424
1113.5305556841
216.658357172467
295.815946583971
1601.19517263742
2127.73959999052
401.882731099701
436.947383814446
2237.52062022374
2240.63446609561
436.991706888776
444.216474977547
2196.54790242106
2125.40315117005
461.340137406988
481.285092749677
2079.86190674734
2110.87464169246
471.53783047964
442.48943747722
2159.99391546297
2194.79140083915
416.034192767208
408.481514586105
2219.64075004667
2225.93348937414
405.169718732467
408.992595572613
2231.30248804421
2233.61760651472
408.524111448116
411.16449198151
2226.21256672207
2241.66375879982
417.235456336783
416.190883035615
2247.48823241038
2274.61899612883
416.567791384512
412.699250218643
2265.37999359992
2244.59089277321
413.129703503967
416.919405257435
2246.63303333302
2247.9671554955
413.808341113611
415.541440855582
2258.2187368764
2244.35058456533
415.421858935073
415.409507988987
2254.65005838116
2258.12131940032
413.780525087595
409.925167008936
2253.69554595891
2245.90355515615
411.990249225783
418.709571639441
2220.39237221974
2185.41700255342
444.305915559824
475.041281072277
2141.22628848698
2115.44391604537
485.491369522141
468.219546186042
2165.92141139113
2239.52213616235
456.138744613773
454.399078896171
2283.75810671609
2274.82334123765
454.845092230902
411.551888956542
2151.46742781988
1607.19210645389
298.200968957507
217.70197467732
1146.99285916786
908.075243010575
169.115591302477
144.503462769039
843.025487823241
524.330342064128
83.1246616975471
76.7524222288269
448.781392749819
401.025732761165
74.6106904071471
69.4490740657803
353.856997344995
529.26947397083
101.345923360596
114.249666722156
620.599071445014
726.714310755811
125.664821486717
150.095385505933
765.942912438944
942.860330551665
186.961823689627
267.830308964772