/*--------------------------------*- C++ -*----------------------------------*\
| =========                 |                                                 |
| \\      /  F ield         | OpenFOAM: The Open Source CFD Toolbox           |
|  \\    /   O peration     | Version:  2312                                  |
|   \\  /    A nd           | Website:  www.openfoam.com                      |
|    \\/     M anipulation  |                                                 |
\*---------------------------------------------------------------------------*/
FoamFile
{
    version     2.0;
    format      ascii;
    arch        "LSB;label=32;scalar=64";
    class       volScalarField;
    location    "300";
    object      nut;
}
// * * * * * * * * * * * * * * * * * * * * * * * * * * * * * * * * * * * * * //

dimensions      [0 2 -1 0 0 0 0];

internalField   nonuniform List<scalar> 
162506
(
0.0014979531076173
0.00155236733271554
0.0001029873612952
7.8800737528138e-05
3.92611795157108e-05
9.52642380800192e-05
0.000460220851465636
0.000530894390189598
9.31985434513427e-05
6.34527916213634e-05
6.95896617434323e-05
0.000885910788668805
0.000936996595501846
0.00130186878566836
0.00293164932574549
0.00332115310821115
8.95290312255645e-05
9.28912592558605e-05
0.00132956904634983
0.000677642914430765
0.000910833785955539
7.98737738005545e-05
8.51392481284205e-05
3.87258219600681e-05
4.36015152366231e-05
6.12591577648329e-05
5.6798694052406e-05
0.0057045285397863
0.000106154975212839
9.82012927185534e-05
0.00813362781365588
0.00772179708926667
0.00496186553989134
0.0104500008344906
0.0150001159288555
0.0149413126763493
0.00010060394960183
0.000109813374549295
0.0106580186834723
0.00846737053583956
0.000113130071703851
0.000110713630780199
0.00510652890156084
0.00458315876911583
0.000110748504916329
0.00011063078791229
0.00325005446685132
0.000815461069352441
8.70915550641071e-05
4.53258495767155e-05
8.51773606058998e-05
9.13397760914013e-05
5.00795844791212e-05
9.64903556163843e-05
0.00116129855039446
0.00128207266735935
0.000101217533289228
9.79040733727772e-05
0.000863668317365449
0.0021422707558527
8.25013444994261e-05
8.17068420533856e-05
0.000955066634618114
0.000819814753942566
0.00228433581980733
8.06791981023218e-05
9.25370538013798e-05
0.00010962344452878
9.78214016677735e-05
0.00434971396787977
0.00283521724125384
0.00418252330753362
0.00593867574559073
0.0035294489523772
0.00247438175605058
0.00192507194829893
0.00167946019339872
0.00334110457464503
0.00298453339260746
0.000102683266666684
0.000113684985135026
0.00530399879315484
0.00507087434041532
0.00827099926464718
0.000102931680173795
0.000112842921714399
9.99221374757032e-05
9.02209693992869e-05
0.0101064629824482
0.00566243899386754
0.0131109682710631
0.00962142182827223
0.0145336898637083
0.0125357666706081
0.00871250851675467
0.0116642096233295
0.0150003104947127
0.0150014778330885
0.01500169325457
0.0150004401148478
0.0150003372557052
0.010386646570244
0.0109440215572806
0.000109774152291271
0.00010068786629141
0.0149430597505538
0.00731990124054778
9.82866336986655e-05
0.000107008803506443
0.00569914731526153
0.00570610483109325
0.000110705108596327
0.000113663756539446
0.00931352797112556
0.00803724306543981
0.000111182517603867
0.000110077298222339
0.00788380868369811
0.00485742847672624
0.000110957472305668
0.000110721074116727
0.00380657431602158
0.00334381348940408
0.000115617511585703
0.000112466668493658
0.00230437809907713
0.00112593840862725
9.70044057231035e-05
5.41730626018769e-05
9.42761812055004e-05
8.76795320360488e-05
4.83556942003474e-05
7.64278383795711e-05
0.000744318805291862
0.000702841538237892
0.000112257211001129
9.67111933417365e-05
0.00131431729396866
0.00219561829146965
9.34318112146595e-05
8.75988290289468e-05
0.00272006100703798
0.00373760414929757
0.000107806537490929
0.000106072168761899
0.00351678054107846
0.0082454778184944
0.000106406359180781
9.811211301597e-05
0.00480104927463399
0.00692068107840758
0.000104860783343928
0.000102389235236972
0.00802705892862342
0.00709560457107498
0.0110149901721907
8.65934131020165e-05
9.60093403270561e-05
0.000105912771798388
9.42710969721261e-05
0.0149278962665252
0.00818266614594113
0.0150011145455843
0.0150007001801349
0.0150003448794024
0.0150008106615765
0.0150010923551107
0.0150004687729766
0.0134275478348113
0.0142015575940697
0.00869082356471196
0.0104575694258421
0.007039309191605
0.00489620686930892
0.00126318960601434
0.00278951653229391
0.00312936905503782
9.01385496578555e-05
9.62965918131331e-05
0.00143535885200893
0.00168861343121923
0.000103017644766608
0.000110804513782411
0.00318627227118314
0.00532042913986774
0.000110969149478012
0.000111896575702042
0.00415797515474664
0.00515731870592424
0.000110580822919103
0.000108172442879074
0.00276266271732813
0.00275105392166129
0.000105272980458798
0.00010859628796262
0.00251934700697722
0.00135832698602727
8.98317490012825e-05
9.46444652784696e-05
0.00138345381107798
0.000726097382449216
8.71481177390939e-05
8.64058301196128e-05
0.000720603706002226
0.000611284863356993
8.03588920643046e-05
7.61496434018451e-05
0.000697616882390175
0.000640627205626249
7.7731517215986e-05
7.31246738149859e-05
0.000815478150392876
0.000588167356388966
5.39927308927596e-05
5.21310312097575e-05
0.00051022104293489
0.000618255351424452
6.46519915911291e-05
5.75205033303125e-05
3.32094593802025e-05
6.77548966315173e-05
0.000603949577900554
0.000540335898577407
7.23277900546781e-05
7.24053886098897e-05
0.00049211365663439
0.000480895407547632
6.02986541867399e-05
3.58942911743169e-05
6.82100955105277e-05
7.43994152582373e-05
0.000383882286713441
7.05472741457927e-05
3.37081985760905e-05
3.50671898674621e-05
7.43901412124427e-05
0.000504026686402964
8.75697635313109e-05
8.46188961692816e-05
0.000561197819375776
0.000969200066522205
8.6521716987713e-05
8.63008323127233e-05
0.00153097611794604
0.00208163719852731
0.000110619478618565
0.000109309725126217
0.00293987023969906
0.00432773016659758
0.000111646521422934
0.000107227203116901
0.00703161403231276
0.00436780180235589
9.51586059966934e-05
9.55675889159152e-05
0.00442216827297204
0.00496043159685071
9.77718205164562e-05
0.00011548281596838
0.00894251582293447
0.0113981272819265
0.000114554998743874
0.000113471204686248
0.0112433163712579
0.00701954203711432
0.000106435011963686
9.44094090086918e-05
0.0149281215011795
0.0147861067878659
0.0132774796918579
0.00587753035231851
0.0116692171509247
0.00941393735641507
0.012221746854366
9.55657376846933e-05
8.70039326022279e-05
9.01436031575427e-05
0.014686968138791
0.00536382023101259
9.95849412881446e-05
0.000103669271963449
0.00671236546355504
0.00564323162066871
0.000113321875852672
0.000102798279397264
0.00279452833344448
0.00295201405366689
0.00412981630819891
9.71562839024372e-05
0.000110734868715326
0.000113004976770312
0.000102844233631439
0.00766004892070459
0.00509325771169826
9.10187117186389e-05
0.000831321038176608
0.00235087521902342
8.14041056999297e-05
7.01137365474809e-05
0.000880451351426801
0.00101905162543609
6.37791742178191e-05
9.47446698553333e-05
0.00053193686558323
0.000455042092372112
7.79974415630968e-05
4.00560034463689e-05
9.87572680689356e-05
5.99526680551081e-05
6.40393161507252e-05
0.000927476854907943
0.000680669450145567
8.46161758443239e-05
8.28996291782222e-05
4.37521020286626e-05
3.95214371491858e-05
8.37552994725089e-05
4.57509197208075e-05
8.63678536435621e-05
0.00077765878287338
0.000875622224266362
9.75015157001773e-05
0.000103776589634434
0.00128196145311475
0.00117335912804185
9.25375169975138e-05
5.03680228895648e-05
9.53909666218336e-05
9.68429801833817e-05
5.38078204985159e-05
9.33016945479286e-05
0.00115146352879817
0.00236254780901688
0.000113797476009836
0.000106890275481207
0.00267088432675904
0.00135427534638579
9.44103585673639e-05
9.52151172865621e-05
0.00128828421921197
0.00135057015780788
9.68173755964484e-05
6.47624775862027e-05
0.000713248541830138
0.000422755674184485
5.19438869123749e-05
4.29924755693434e-05
0.000289041488605767
0.000373990509340811
4.75859457716838e-05
4.2171360524611e-05
0.000288006526125107
0.00038574629474875
4.75418474979589e-05
5.37204696037324e-05
0.000514024089112622
0.000623019443536777
6.21430661326765e-05
3.35245879677767e-05
5.22983758329179e-05
5.30212647760977e-05
3.8305398778414e-05
6.54539106845721e-05
0.000391941649929913
0.00048860631985723
6.66061821901392e-05
6.29142958398096e-05
0.000864763591299693
0.000419067007785386
5.64767564877787e-05
5.0848084698265e-05
0.000383971820929354
0.000313610023809202
5.8718448974018e-05
7.29519977257488e-05
0.0004282007040934
0.000826630329001128
8.04554797745703e-05
0.000110107825538692
0.000836785464523091
0.00131666935308465
8.93629714361809e-05
9.55064898812334e-05
0.00156209320566921
0.00262415129590878
0.000113738448614215
9.82839315956166e-05
0.0028989213980272
0.00413464572840792
9.60113449797011e-05
9.65836342634016e-05
0.00413526156511671
0.00489916896402756
0.000115132611948188
0.000114695486565075
0.0079350424330383
0.0079205555328023
0.00011501154620326
0.000114997932301192
0.0089441479473528
0.00493981381904979
9.64752046190675e-05
0.000100260971782065
0.00754359900429935
0.00319975253374367
0.00774583909293132
0.00777290310587979
0.0147374057286925
0.0119599880689416
0.010505765495402
0.00880011365805335
0.0115706249910084
0.0134231163163925
0.0110915594440815
0.00476621872470798
9.85264109271838e-05
0.000105250266999944
0.00819974450787807
0.00341697562422704
0.000105877244490617
8.30657635704003e-05
0.00205764677179589
0.00290537917985331
8.69781739505338e-05
9.27765400803479e-05
0.00256114810093622
0.00136861086957171
9.76265289991522e-05
0.00010987106099613
0.000729926690548334
0.000824665843846981
8.52825674649498e-05
4.67738443041158e-05
7.71389964196184e-05
8.44129457106563e-05
3.39676133789233e-05
7.08164214028799e-05
0.000540602547199441
0.000635673346845641
8.54440741943566e-05
8.61073778510356e-05
0.000724622030445871
0.000668543786765311
7.98679850324847e-05
7.57758967226786e-05
0.000586190327117667
0.000545882772396101
7.63892275454261e-05
6.32716037894902e-05
0.000374530236370813
6.72118038680083e-05
3.27114829117894e-05
3.2699472590392e-05
5.57579956515389e-05
0.000389169685653972
6.15316117297747e-05
6.38165503968854e-05
0.00032263897907436
0.00041113172334647
5.45941156635471e-05
5.2570972813689e-05
2.8103991840166e-05
5.04994743978594e-05
0.000424549904740113
0.000488972013781434
5.72616354901767e-05
5.31309165882389e-05
0.000409152499995798
0.000283415882449078
4.34211219437781e-05
4.0054076411128e-05
0.000259967562869585
0.000246010527873155
3.81443501804039e-05
3.92175866823342e-05
0.000250235604748009
0.000184688917007598
3.64248903699991e-05
3.5610675940858e-05
0.000214256785184914
0.000177795432812388
2.96916029233996e-05
3.73496488538552e-05
0.000190631740294877
0.000259716086095746
3.74608222129153e-05
4.28604381658072e-05
0.000295473369200733
0.00034285131460144
3.77769128569233e-05
4.47304053598753e-05
0.000325539057638967
0.000277154581497137
4.33104841009918e-05
5.53110888548152e-05
4.28222963265082e-05
7.00728659758383e-05
0.000312015440753514
0.000380656726140483
7.36607389269991e-05
6.74606041035225e-05
0.000448724719589905
0.000507196245281961
6.27830545560821e-05
5.64010984453174e-05
0.000444798983899327
0.000432339560236539
7.5578117991917e-05
7.25337970215667e-05
0.000491294878580078
0.000494390722965554
0.000610945967770083
0.000492824669181836
0.000304292749840547
0.000435804527851938
0.000835457789167917
8.29687657387342e-05
6.56634558031634e-05
0.00057790051578315
0.000364060267104484
4.64308613113453e-05
5.1111771454588e-05
0.000461589900500921
0.000754244247211368
6.36779773680735e-05
6.79979029010829e-05
0.000474042708874953
0.000390498851216497
6.02731107573241e-05
5.44083324147492e-05
0.000333825649079619
0.00033675775745742
5.50318452266617e-05
5.3053083010871e-05
0.000499969554837699
0.000950606590199269
7.45102510641019e-05
0.000477868141993652
0.000714729884758113
7.38015149073417e-05
6.30546646271265e-05
0.000583440320871131
0.000505582024982527
6.06626969750159e-05
8.15247059928185e-05
0.00038053485093747
0.000461482022102311
9.7452607619789e-05
0.000107549146391211
0.000651560712015007
0.000664029673945228
9.36405417802959e-05
9.22763670595904e-05
0.000973676176966468
0.00178119700430648
9.22456828799751e-05
9.6659126328657e-05
0.00173038186864251
0.00305029893003687
9.71840068378773e-05
0.000114943654544078
0.00275263625766408
0.0028362070495773
0.000115302871085534
0.00011542246657132
0.00519724480407991
0.00411908740550977
9.69204711099506e-05
9.57610177788305e-05
0.00440126874509759
0.00435112267834018
9.59399041827155e-05
0.000107233214650346
0.007609843185643
0.00412273440755223
0.000107786114467063
0.000112840073969832
0.00320556110801142
0.00234616054860184
0.000110581377579997
8.33158990971936e-05
0.00187439693669663
0.000896927862387357
9.1742869778492e-05
8.11816801987376e-05
0.000521349150995351
0.000299589350322793
5.48849330984291e-05
5.80993095066031e-05
0.000792227869966355
0.000560369347814782
4.65014460236346e-05
5.68044247541463e-05
0.000797892382631198
0.000585149649322465
5.46467912589773e-05
5.32583997023068e-05
0.000417893221160761
0.000423492859801936
5.47424971010342e-05
5.40118764939505e-05
0.000430741391796641
0.000389035282536004
4.96024362125032e-05
4.82778164806834e-05
2.61095919158505e-05
4.10098493977345e-05
0.000285065222602811
0.00024384231926669
4.25208878045922e-05
4.55130592506013e-05
0.000224965033921507
0.000334841472774471
3.98298185182897e-05
2.46627768368955e-05
4.25819123912231e-05
4.49189378023683e-05
2.6615162042395e-05
4.53858347181993e-05
0.000429003203959848
0.000443464854048906
5.31840486979213e-05
4.36749390194851e-05
0.000306367564207736
0.000217369870866944
3.63231089366563e-05
3.85328083141751e-05
0.00018256561677192
0.000174534266179348
3.7246735533166e-05
3.2658117566658e-05
0.000129747460425108
0.000127931202420597
3.19847873484666e-05
3.07507517654715e-05
0.000153158666185795
0.000147423996458805
3.34309215385116e-05
2.62248689306964e-05
0.000126325632464967
0.000140751313017142
2.41622939490554e-05
2.97975165841241e-05
0.000168842743821077
0.000213669461259541
3.02082472381445e-05
3.56893611041426e-05
0.000243001672959403
0.000263773227445161
4.08051325490567e-05
3.3534417037909e-05
0.000246942810905108
0.000212365717707114
3.78876586256292e-05
3.89908613936901e-05
0.000204410418994215
0.000265592896817805
4.76958254822711e-05
5.94062236953014e-05
4.76892271733384e-05
7.56740690474319e-05
0.000303410069541553
0.000370089536683366
7.98102430800479e-05
7.31527909268408e-05
0.000430660812498579
0.000575415267265703
7.03124543493477e-05
8.11307103255208e-05
0.000556412329748441
0.000439126768162193
8.01575276831413e-05
0.000373558443101621
0.000294650955665242
0.000184221022383372
0.000124829487291459
0.000137448577513454
0.000211794841995152
0.00022333240958991
0.000156921602419787
0.000281616756101768
0.000472925744372441
0.000651921699258582
0.000108931664384287
0.000110078964179641
0.000962983863881379
0.00158514207595136
0.00011329440743937
0.000113808298210665
0.00159278633167851
0.00170044571317508
9.76780894467449e-05
9.76075088816884e-05
0.00316803453438621
0.00304060019509182
9.69291030640208e-05
0.000115197120643673
0.00303816160203859
0.0017130779406583
0.000111087239238889
0.000112592781664762
0.00129359131766617
0.000935971749716959
9.50876227341582e-05
8.26652608774572e-05
0.000963401039998055
0.000411928075661784
7.35855214209391e-05
7.27846046059156e-05
0.000426079016529794
0.00040952307132652
4.15989273843149e-05
4.91328318991647e-05
0.000463964135858556
0.000444665141053368
4.7981894725204e-05
5.2291866913189e-05
0.000328483008614098
0.00028779378603848
3.93058781730115e-05
2.58728676232104e-05
4.45118849820209e-05
4.64281714931835e-05
2.96886624513993e-05
4.12228410585429e-05
0.00023395033319569
0.00020063786851919
3.53487099913146e-05
3.02140452131239e-05
0.000230042367482992
0.000189670305979856
2.84126774747159e-05
2.34402348054914e-05
0.000175228902153813
0.000148538374928897
2.27983324212435e-05
1.74632591194334e-05
0.000125639960119509
0.000111457096972717
2.22439137859261e-05
1.8258590686052e-05
0.000107183356088364
0.000108798271579804
2.23804654674703e-05
2.32789649988824e-05
0.000107671366116391
0.000106144657976418
2.29520685856297e-05
2.24733083135714e-05
0.000106190797058239
0.000107995795197933
1.82129647696207e-05
2.24199993260719e-05
0.000117426694845709
0.000135305490767864
1.78713535811089e-05
2.3242349352927e-05
0.000155118332582525
0.000189131404392777
2.53658719778747e-05
3.09074987016217e-05
0.000212849086915012
0.000181952853078482
3.08009312276445e-05
3.3024171553402e-05
0.000175349187612509
0.000160874293733503
3.89839857720076e-05
4.3018867806962e-05
0.000196575646261079
0.000204927792412466
4.97856850095492e-05
6.12323758850684e-05
0.0002929696027907
0.000348045921976266
8.32048326943355e-05
5.3894323095181e-05
6.97943987610533e-05
8.0788619668438e-05
5.87359889932891e-05
9.36926649218268e-05
0.000445856837430002
0.000548346948200329
9.57680246470841e-05
8.75083501244837e-05
0.000419083967405093
0.000454638695194727
8.08692276107067e-05
7.61857963689596e-05
0.000495713890117177
0.000570173869715182
7.95928585561239e-05
7.68597943221591e-05
0.000570820320199813
0.000522109279848921
7.24938032732301e-05
0.000507845075596085
0.000360864034751123
0.000410931198252746
0.000383258786130053
0.000434832829926894
0.000508661136643833
0.000626759777471433
0.000111644640705768
9.80022876890943e-05
0.000761125104766491
0.00105724021418036
9.56994493522023e-05
0.000816327033436303
0.000767070520512037
0.00072093814626379
0.00094471959648154
0.000110155302878723
9.55791475774191e-05
0.000977385705892457
0.000973119487046528
9.27810196036325e-05
8.84721653674678e-05
0.000949109311529684
0.000595335316901764
7.66637621686885e-05
6.59918696769827e-05
0.000713767937426744
0.000639877110015994
5.96320096618274e-05
5.95932545457557e-05
0.000727267890582562
0.000593284754240145
6.46313210642547e-05
6.52872872280958e-05
0.000429468790380815
0.000345211107843973
6.14270425261604e-05
5.35090708985161e-05
0.000332288928904683
0.000304313286158444
5.12032060786795e-05
5.02238993689858e-05
0.000255772779087376
0.000220481992887595
5.84142353567421e-05
4.90965675026229e-05
2.98405244089759e-05
4.30238505803026e-05
0.000216344843842649
0.000181930515711621
3.62263352612876e-05
2.86756291487876e-05
0.000196977688145361
0.000190338919214261
2.44205009380578e-05
2.08125423296676e-05
0.000129776326080036
0.000145650266189443
1.61642422927119e-05
1.78974292104915e-05
0.000132811526456622
9.69665618142765e-05
1.99176850972495e-05
1.60140724682567e-05
9.70891369058704e-05
9.4788172579762e-05
1.92176210606191e-05
1.67036148657971e-05
8.56421806376798e-05
8.06330356518523e-05
1.90457488785849e-05
1.69379394087298e-05
8.34930763435006e-05
8.96732935979624e-05
2.76247285987801e-05
2.0803772452104e-05
9.73635097915257e-05
8.18057076929097e-05
2.49288570237729e-05
2.61562472713218e-05
8.68959248882791e-05
9.39223057359418e-05
2.98857470022117e-05
2.78332691148864e-05
8.95486571323879e-05
8.6170151661205e-05
2.08766468730058e-05
2.47971235619877e-05
8.13095621831104e-05
9.27041892933845e-05
2.0315476430279e-05
2.29946338701158e-05
8.94979530357423e-05
8.32695018963648e-05
1.6562318836313e-05
1.73247741582285e-05
8.32294321846732e-05
8.76886642366507e-05
1.70579266243541e-05
2.06643749075502e-05
0.000102426710985976
0.000109582529599664
1.66283121612945e-05
2.03689550563699e-05
0.000107194263530277
0.000146041938657349
1.86456511228014e-05
1.78534387574411e-05
0.000182553014833089
0.000153817720587964
1.86654886761558e-05
2.08195498869657e-05
9.63439513347301e-05
0.000102249577256944
1.5767396183485e-05
2.25228898115981e-05
0.000104257065880627
8.97704157712778e-05
1.81244538957476e-05
1.78681969884976e-05
8.17948231882897e-05
7.96679199503057e-05
1.67274817960227e-05
1.9701523293663e-05
9.03701698311585e-05
9.62060655878276e-05
2.08042680178158e-05
2.48990529961716e-05
8.49388627936262e-05
7.93086339268071e-05
1.95844123518452e-05
2.51914035868895e-05
9.51030851228853e-05
9.81893047165419e-05
2.60203780113486e-05
2.46599917164682e-05
8.75349292058486e-05
8.88371578508599e-05
2.60268236522004e-05
2.08577167281703e-05
0.000103865864665796
9.40907948056693e-05
2.10886427608995e-05
1.63207526163788e-05
7.89836038540213e-05
7.92173991067254e-05
1.83453146536651e-05
1.77127687693914e-05
8.82062382305157e-05
9.60450650236332e-05
1.9922674855154e-05
1.5638717897109e-05
9.13363042188352e-05
8.88738640875182e-05
1.97507074285116e-05
1.85104717562957e-05
0.000126949451101714
0.000160804546452487
9.1559953127358e-05
7.9837396104289e-05
6.09896413858028e-05
5.94129829048081e-05
5.97022158314897e-05
6.74076539026255e-05
8.72014208316579e-05
0.00012657980815361
0.000248317281795887
0.000334372049334566
0.000499043385089221
0.00065336903680085
9.51489194128277e-05
9.20624072574217e-05
0.000668878260927695
0.000555398631051587
0.000100826766763148
8.19127651486835e-05
0.00049337567728106
0.000429984422920391
7.27367282778929e-05
7.00775825204959e-05
0.000460672788323563
0.00047225298005596
5.75405682718221e-05
5.61347123077797e-05
0.000519642495928325
0.000409991042648516
6.17342307237588e-05
6.59710981849056e-05
0.000358329184335436
0.000297278178657279
6.49476811431705e-05
5.753316650467e-05
0.000266668923344274
0.0002726444712125
5.66377456535057e-05
5.23301763334359e-05
0.000212348063784816
0.000197612653991532
4.85415527423784e-05
3.41770829817928e-05
4.49596198904934e-05
3.97778836435407e-05
0.000167937681481721
0.000185791936394853
3.07590917910708e-05
2.28629357768163e-05
0.000154355120605307
0.000166525434329344
1.92030240738834e-05
1.96862581299558e-05
0.000119717603161236
0.000108163834759473
2.18816930529465e-05
2.15388723459553e-05
9.8231582958707e-05
8.37232629009852e-05
2.34695532025538e-05
2.27236674319384e-05
7.51799974298679e-05
6.95214916279837e-05
2.25639838592055e-05
2.29085910804628e-05
6.05974957918605e-05
5.42548892742109e-05
2.42003743968991e-05
2.39493515339853e-05
4.96750545496764e-05
4.53496193714278e-05
2.31719061113663e-05
2.09888902858452e-05
4.30660117647347e-05
4.00983665745732e-05
2.29996558065541e-05
2.46164104800771e-05
4.04767649235682e-05
4.02679632744862e-05
2.46037514435862e-05
2.36352712333397e-05
3.98461525885567e-05
4.12094421171546e-05
2.26407038166247e-05
2.33165165333113e-05
4.18910359180679e-05
4.53655558098402e-05
2.2440377428563e-05
2.50211311938441e-05
4.98958502209395e-05
5.56010205801149e-05
2.38524133899745e-05
2.29127617738038e-05
6.1639105163914e-05
6.69086540408686e-05
2.34171171364198e-05
2.40450214443689e-05
7.67372930366733e-05
8.62517220707807e-05
2.34864771589258e-05
2.40624021756186e-05
9.40143441159704e-05
0.000120290883743129
2.33658675563233e-05
2.21083952211253e-05
0.000118296032171386
0.000116943018611589
2.17194556974455e-05
2.24834180363194e-05
0.000149520713891998
0.000142429721956096
2.85539091177087e-05
3.62880507013851e-05
0.000141492815212719
0.00015358445487052
5.13625148778557e-05
4.91277989480309e-05
0.000174069121991548
0.000182985216038294
6.40637737554842e-05
5.32709373318698e-05
0.00022351035616281
0.000251227771543198
6.21321398497467e-05
8.32835911204197e-05
0.00036312425554272
0.000465083647829938
9.54603688152534e-05
9.10904748523824e-05
6.14367694816752e-05
9.86144646552235e-05
0.000613128927796167
0.000751960554397274
9.40890159966636e-05
8.92481559181128e-05
0.000688731867640213
0.000666509770541151
8.33479119698062e-05
8.07557229427974e-05
0.000590118156593061
0.000677471954627744
9.22777026598741e-05
8.08986026354693e-05
0.000732078803655969
0.000958361797822526
8.14106594405942e-05
7.11991897837305e-05
0.000640865507614591
0.000650417779640132
6.58002741583242e-05
8.70934216020773e-05
0.000560532321498085
0.000785589904758543
8.61339414390154e-05
0.000110729305733298
0.00120782119154293
0.00109652736026471
0.000116989356213992
0.000139772576649798
0.000968283601755864
0.000852628408063251
0.000143603739182556
0.000119844120959689
0.000573543385632961
0.000532870465062757
0.000118073040613834
0.000108057867460627
0.000614352493009513
0.000430151992027477
0.000394817088606734
0.000431375974363039
0.000548620803356171
0.00010751282553357
0.000137645512587324
0.000817684556355394
0.000874084580287083
0.000117601440811414
0.000103928388780462
0.000862993119827326
0.000604811838550486
8.49265141917216e-05
7.76146357897657e-05
0.000430968215684841
0.000449220345781597
6.85358742108634e-05
6.11439544555059e-05
0.000429301744364093
0.000477185012593793
6.03373419672465e-05
6.9107542614092e-05
0.000494165027318723
0.000382165413193116
7.59820696350392e-05
7.49028475422424e-05
0.000342708398941644
0.000285239992697175
6.78712642867008e-05
6.82367088303228e-05
0.000317620052681763
0.000225870529334907
5.86776622071349e-05
5.42334421817852e-05
4.35052695617519e-05
6.0504140040156e-05
0.000221628785905256
0.00017196647246405
5.49294154033544e-05
4.7918436364091e-05
0.000186007858258822
0.000182068014155462
4.85844675243096e-05
3.63387235515963e-05
0.000100495432319508
0.000113091441826019
4.83133741980485e-05
4.90450780610108e-05
0.000106421112183845
9.57589959761371e-05
5.1248001362386e-05
4.52159429961064e-05
8.06425079850997e-05
7.84280178291696e-05
4.08774000509173e-05
3.81620159077846e-05
8.15558894444887e-05
7.83507718073814e-05
3.84551637884929e-05
3.71256314221445e-05
6.93280943384167e-05
5.43483528967505e-05
3.54256455437241e-05
3.52578935608732e-05
4.48568024420753e-05
3.83335373411837e-05
3.3217159515734e-05
3.15040719522228e-05
3.47705575932579e-05
3.26818208760515e-05
2.94858894662198e-05
2.89200795639981e-05
3.15496139166625e-05
3.05405425457745e-05
2.74373250950831e-05
2.74792961442865e-05
3.01572778516137e-05
2.96887183358268e-05
2.63018701408874e-05
2.66054017488709e-05
2.97348316122462e-05
2.93155551342436e-05
2.64990658201323e-05
2.63037912258076e-05
2.88734865360809e-05
2.86938319510109e-05
2.73031814809275e-05
2.75394466635972e-05
2.95121616406961e-05
2.94815776875202e-05
2.72738468350097e-05
2.70406493779029e-05
2.87948027046549e-05
2.88414613006593e-05
2.69624621586019e-05
2.70158709185333e-05
2.92370482386201e-05
2.94847359689956e-05
2.62547229269155e-05
2.68572829442542e-05
2.89473630584975e-05
2.93644438486732e-05
2.73975679895794e-05
2.72109968169032e-05
2.97653211575467e-05
3.05393229512462e-05
2.82265825916654e-05
2.81019836796693e-05
3.08991403538657e-05
3.18709749854842e-05
2.96660693867493e-05
3.03710150640212e-05
3.30931541989412e-05
3.53448298027876e-05
3.24175068683869e-05
3.37465948058051e-05
3.89778221176709e-05
4.55519756709111e-05
3.61011677367166e-05
3.67510302633263e-05
5.5424744442658e-05
7.14441033026081e-05
3.89516128801286e-05
4.04253538341873e-05
8.10292674963896e-05
8.67623159731745e-05
4.00822047169302e-05
4.316454340991e-05
7.99936100748097e-05
8.50877472679962e-05
4.61179421544798e-05
5.26239486575538e-05
0.000107374572508767
0.000117769528122811
5.33695751428698e-05
4.23297356603529e-05
9.58199069818294e-05
9.39048484776976e-05
3.27405383671117e-05
2.94564003416243e-05
0.000103282679385035
0.000101583553140259
2.54177480314471e-05
2.66666308614928e-05
0.000108738648265197
0.000112909908822746
3.14787800452004e-05
3.92749009998738e-05
0.000108950933947241
0.00010130594853303
3.73793568764627e-05
3.26145257987135e-05
8.16320649105706e-05
8.08596644049249e-05
3.75538660283044e-05
3.16810946219854e-05
8.30502538378353e-05
8.09304936628266e-05
3.20720755900485e-05
3.11832118996453e-05
6.93401630135442e-05
5.47952129893365e-05
2.92563691295409e-05
2.89411510056538e-05
4.39353991543806e-05
3.70626258107511e-05
2.67008395248928e-05
2.60652294391258e-05
3.32130666279129e-05
3.06504778656043e-05
2.42321724685309e-05
2.40710420820523e-05
2.92621199437313e-05
2.8176886579628e-05
2.25332604422661e-05
2.29076239698358e-05
2.77529159095359e-05
2.70921862544061e-05
2.1990797169908e-05
2.23423171999593e-05
2.6764937619008e-05
2.63077654646432e-05
2.19172916349964e-05
2.13037897503508e-05
2.67257345536354e-05
2.65019791519074e-05
2.18875629430342e-05
2.20312207664781e-05
2.60676490067132e-05
2.60307817895743e-05
2.20776905347794e-05
2.19978766068555e-05
2.6637399623943e-05
2.6697733375212e-05
2.22027260880149e-05
2.22666089674355e-05
2.60890445884215e-05
2.62499195899067e-05
2.14808140474595e-05
2.15718173602029e-05
2.6569168114839e-05
2.68834896767995e-05
2.16034432613265e-05
2.1329402737293e-05
2.69313187729877e-05
2.74003764727984e-05
2.245491180257e-05
2.20936737443032e-05
2.78225783377814e-05
2.88388784151648e-05
2.34784878314372e-05
2.35868322273886e-05
3.01074679656473e-05
3.24797675445963e-05
2.54799478819927e-05
2.6356226684496e-05
3.6250337670018e-05
4.28189407547566e-05
2.82728589328603e-05
2.82258955007575e-05
5.37955294546275e-05
6.68906102926515e-05
2.98521076090498e-05
3.07709907694824e-05
7.77901066108278e-05
7.87532296189644e-05
3.02781410561727e-05
3.59321902607651e-05
7.9879083492211e-05
7.82132230697991e-05
3.24228494990974e-05
3.05841176306869e-05
8.11201252293466e-05
8.03432355211169e-05
2.6355567906133e-05
2.71097541611139e-05
6.95163566400906e-05
7.01952092495725e-05
2.65728066037921e-05
2.50082447607179e-05
5.32327022259682e-05
4.6748816053582e-05
2.52917189169388e-05
2.34781304967755e-05
3.58658024360396e-05
3.39525224249141e-05
2.3266930827164e-05
2.12814788055117e-05
2.99275379387898e-05
2.92274419890532e-05
2.16616444221287e-05
2.01181065458788e-05
2.7640231023216e-05
2.7232014259701e-05
2.08628715980971e-05
1.95510463490553e-05
2.64541137833239e-05
2.66715051893389e-05
1.99407008647315e-05
1.99412307416693e-05
2.62082903082465e-05
2.58033067181012e-05
1.98578984181818e-05
2.05686242301652e-05
2.54574723336434e-05
2.63951997847924e-05
2.04105975189244e-05
2.02502819659095e-05
2.64103765688373e-05
2.53938114573902e-05
2.05124900219846e-05
2.04353871360001e-05
2.5467397527203e-05
2.60633540217667e-05
2.02248734307828e-05
1.96621295044007e-05
2.61580895225731e-05
2.57543381260181e-05
2.0238188236478e-05
2.07137383531078e-05
2.65040742588761e-05
2.67758917013513e-05