/*--------------------------------*- C++ -*----------------------------------*\
| =========                 |                                                 |
| \\      /  F ield         | OpenFOAM: The Open Source CFD Toolbox           |
|  \\    /   O peration     | Version:  2312                                  |
|   \\  /    A nd           | Website:  www.openfoam.com                      |
|    \\/     M anipulation  |                                                 |
\*---------------------------------------------------------------------------*/
FoamFile
{
    version     2.0;
    format      ascii;
    arch        "LSB;label=32;scalar=64";
    class       volScalarField;
    location    "300";
    object      omega;
}
// * * * * * * * * * * * * * * * * * * * * * * * * * * * * * * * * * * * * * //

dimensions      [0 0 -1 0 0 0 0];

internalField   nonuniform List<scalar> 
162506
(
1.0345108272263
1.07661644617689
11.7856352615857
12.4495956697442
16.6335715907544
14.2585705741822
1.59027649846626
1.2183245689842
12.9040132217064
13.6380660525519
14.1861245389092
1.10881845973669
1.11131663404821
1.01921606515096
1.00298056053832
1.00607080491513
13.0955832819755
12.3548789584273
1.02202708129462
1.46606812559666
1.66572473214534
13.340168986535
12.7729296402885
16.5121417992044
15.9606933565752
14.2447932323554
14.3964002900804
1.00632405196393
11.8143757162925
12.5091827206713
1.00241065580125
1.00026653873243
1.00199764271586
1.00002295726252
0.999894499646962
1.00379892272402
12.2940992930872
11.6840029690735
1.00902116728268
1.61901997223853
11.6729973113579
11.6196994489992
1.47101941912914
1.67965382144748
12.4313225625978
12.0560068608562
1.13994946266781
1.65960486032286
14.5181259307959
17.1148230480815
12.4965715552371
12.7377040599734
17.8384624680235
14.9943036245086
1.81332879643666
1.52612091901901
13.6490038604388
13.1535646991297
1.44843690226575
2.41222856321185
13.8170726326421
12.6470115977845
1.60133139025732
1.03328968557171
1.00676584225679
13.9019360340855
13.0361244877717
11.6869158845157
12.0024580915268
1.00216338183757
1.00816346340235
1.00253171264487
1.00060283846414
1.00199235064478
1.00655114835282
1.00760849895915
1.12008358915071
1.31298964411392
1.84972125205227
11.9884521620083
11.9532605395682
1.53240281766373
1.00559821176687
1.00179024239554
11.8114412160394
11.6054415069368
13.1762209789318
13.9108967686433
1.00388423354444
1.01000421221091
1.00011759585228
1.00011098611643
0.999955605830141
1.00000173577875
1.00047023672965
1.00002774247173
0.999912163211899
0.999839416606357
0.999860139604532
0.999923058566963
0.999912972188526
1.00004726452931
1.00906713483928
11.6805824069563
12.2896222730615
1.00372054234781
1.00227582670191
12.4965942437926
11.8041478228606
1.00620014086422
1.46887998652066
11.6100198816098
11.6697583403413
1.61850693143587
1.88056726823811
12.7244946802458
12.7292527769115
1.88180660766038
2.02042624650203
13.4199642963445
13.0096082141165
1.80742482368322
1.21734800011326
12.3969397707528
13.5338489622571
2.2859284420534
3.11166537194281
16.2309187453482
18.9490454308003
13.5103147030781
15.8230989026182
21.7773499833698
19.4480104337153
5.72825801029417
3.60462242420898
16.8257542902454
14.6522870951699
2.33573863716418
2.66062031933457
15.5961495601837
14.9065303684087
2.43034179451791
2.66619107230141
14.6605852312402
13.524593507989
2.52094665959619
1.83661788775538
13.2115021575804
15.2974367828871
3.19406733020512
2.07703070627406
13.2957414457869
13.6020688464225
1.88367140385491
1.01321982355119
1.0052563640131
14.9669423834733
13.9111836987318
12.8154070393692
13.6253564119322
1.00477210113561
1.01060981522982
0.999925082299403
0.999940167027848
0.999911629241824
0.999769519815708
0.999802889742945
0.999921997037667
0.999975822681704
0.999986064490862
1.0005045540327
1.00007354759824
1.00035581865731
1.00213479849836
1.01995746823262
1.00330871570982
1.00433176220863
13.0739494106548
12.3333041305776
1.01948512466989
1.0703629844344
11.7628795969458
12.0304691583398
1.1331246911204
1.67636241534808
12.418772411507
12.994842618462
1.80499622634171
2.01897006582148
13.4132752580024
14.613702287544
2.73500208497866
2.74787618239329
14.6352643188592
14.1965471339395
2.60860961871775
4.38027339825382
17.4532113922855
16.5670945347528
4.19648426302351
4.86899059374655
19.8262621031587
20.3775782602989
7.56516468914781
8.23104094842961
22.4226155625907
24.5387415225699
7.94553864433831
5.9479058171647
22.6293792249323
24.4155516463826
6.8356772270356
8.9398552728142
32.1975358141241
38.3473936026854
11.0841018993324
12.3823714532582
34.461763499034
37.3122725483532
54.1382602346804
32.0019168546483
13.9699982529123
12.6391032081839
30.0772165274597
28.553773672728
12.2450402094329
11.8797667709612
29.9721926516995
40.5647377768231
29.148434616234
27.4414752958861
9.20575205354357
23.9758041416638
32.5244939041483
28.6462987033864
19.6722325250322
7.81886725148975
24.4908219814991
20.6068875322046
6.08288151982045
4.32474536149318
18.8775497885718
16.6885347236598
3.19994154969851
2.95987446227649
16.0787508885832
15.288384529238
2.75583759570059
2.07572884429507
14.8633733808431
14.1534857342216
1.98354289700794
3.52582744991117
17.1323353580583
17.1379424344967
3.48582342179092
3.09092442518892
15.3369718766822
13.2263777429499
1.69013746805835
1.32003402772523
12.4084188218129
12.4014252911225
1.32872295340856
1.0103439487719
12.8009994456856
13.6086987897849
1.00482130133444
0.99995510704336
1.00005119528016
1.00101022674767
1.00003221480944
1.00459139795097
1.01696279158428
13.8699302647047
14.9182942110532
13.8559396138266
1.00534157561326
1.01138079055474
13.129949564437
13.2725958922065
2.09852382599968
1.54314348947377
11.94400835907
11.9906309666806
1.8563503794222
1.00790295228174
1.00225595888607
11.9725405238038
11.6715594454508
11.5794549792019
11.7742794634369
1.00203021899461
1.00591007560613
13.0125231655433
1.03252474654236
1.00643551412123
13.8643168075855
14.1613283671758
1.10204375423252
1.10379114469639
13.4366361110173
12.7321859675588
1.3136948196718
2.01800055560481
12.5954316337738
16.01409034407
13.5478547476119
13.2671851822485
13.7992790546333
1.16681069287391
1.15138192970931
13.1131162632081
13.4797177930617
15.4106460628481
15.3805359524683
14.4627935552866
17.0622300958205
12.4681527055566
2.09642185686043
1.55146473122476
13.1431941629817
13.6570862868012
1.6530361386002
2.26257349134675
12.70385879414
17.7920591094815
14.9512351374252
16.2934126169922
18.9427529383255
13.6840706192954
3.75511279716563
2.36338122536417
13.5186546088369
14.1596707780515
2.59239240745896
4.35624707678375
17.2877577970682
17.8695742664933
4.46159803790082
4.48545438089466
17.9414419647955
25.4998594320316
7.22169034461716
9.75623358834228
36.5057827559838
44.8663789576138
11.243327861545
10.8284559871816
43.1601353098117
52.0920664957026
16.2499972441878
16.0998900071952
46.9555202243889
40.6747421481182
15.5409075845161
13.985822991497
34.4363206937234
56.5135819046298
41.2217077949424
43.8619976864059
54.548325375299
36.0527616874189
15.0808844744621
12.9393140151856
34.7742968570206
32.4201931437464
12.8037335003011
12.0709887495525
33.9713036566226
32.0832868741904
10.4325377274438
8.95294787318576
26.6987108722153
23.8998603843529
6.92383625884231
6.47919428995219
23.8072946116855
21.7574383462369
5.71744072057945
3.67186476572552
17.6668814298531
16.8705787378926
2.62166716995899
2.19038181355215
15.6088487008336
19.5022763794804
3.86925315797161
3.73978927049264
18.3531762268374
18.3337701950057
3.74555136569749
2.04823276884729
14.8214531196744
14.0847845330435
1.91174489488956
1.91593626931019
14.0793628167543
13.2250049290691
1.69043593419287
3.10442527125839
15.3372080997055
13.583105922671
1.91021731425802
1.25922621277914
1.00128803064778
1.01041952688789
1.0181709383323
1.0008199569897
1.00030760955398
1.0001652144123
1.3002217287941
1.11919294167965
1.35729347152775
3.21760771031576
15.2979867599844
13.209229998015
1.84653514534542
2.52975742032132
13.5313939217736
13.8231912550616
2.43044869597963
2.47203899971695
14.9296635176755
15.6585087302529
2.76002293570327
2.5522741492134
14.730093097796
17.1685491948996
4.02700398691843
6.29872622988955
16.4061652860776
21.8708604850492
19.6319240654104
25.0733205839227
28.8458832906995
20.9198921063236
8.65687143013701
8.15126041145931
21.0107042624711
19.7414864930172
4.8956926817842
5.97746902520264
22.1123470995829
24.7820582293876
8.62712774634504
8.89708412227902
23.5316311933795
26.0069919213022
10.0167523147715
29.1686568537599
33.5296391925993
43.4679256334933
32.4678926405553
13.5293143649961
32.8247862805752
34.4755263319014
14.8063689489138
15.9707281460873
39.0586296735139
39.4439996479985
57.6530367774616
41.1130914122454
17.5161656953247
14.9896313245519
36.22574067579
38.1868985139837
13.035583838007
11.8956139097887
42.5459630432122
44.1945177015126
11.7006229088547
11.3344726926935
45.0372423549847
45.3480497579497
11.291925822536
17.418039510765
54.1898048115557
54.0371116141478
17.2430637822079
23.3464833606393
71.4080179475778
70.0013324634002
22.3430550410174
21.511772420975
67.1428943745059
62.6354440719671
20.6824405545431
18.4589521516758
57.2294574352295
50.6731839478801
18.546132446851
20.9520290641252
59.5352279650558
47.0139283900164
56.0145904073501
37.8579334265621
15.9117472620911
13.1900430542845
36.4491351128685
40.2652211483517
12.3545871891759
11.2928928373699
38.4665531910937
36.0896415285514
11.135796823058
8.26593362591226
30.4491012123413
27.8445990662302
7.593241139375
5.11674875792813
3.31841967945069
1.67689404042982
1.78014858716744
2.29298536482482
4.54847545413299
23.4465398863935
22.5422188722644
4.70024648409005
4.45793116990197
24.4092567800095
26.6805059055467
4.93960683009939
4.90133090705602
26.0806263688226
28.2895463541059
7.48803594803004
7.23730278405314
29.003150119718
30.3148818478518
7.14982415050665
8.75554763816507
33.1839220521191
30.6038037419491
9.06136965083162
7.05121954022119
27.3167427657592
4.74680828978076
9.43928984952315
30.5870227273355
38.1764891950967
11.7934559970038
11.1791766616414
37.0491946186934
31.2547168928506
7.74519930717841
4.84607872676074
25.4125619941291
25.6193622443543
4.79472135889443
4.82565666986071
24.6200527598867
22.5845834478487
4.69222169490212
3.97872032731583
20.6809727068548
20.6445359050372
4.00328420823813
3.88739901051373
19.468337875162
15.5074363174284
2.12247806044145
2.12950011574412
15.492935860442
14.8127188767851
2.05692244993629
3.7600139330694
18.3120028003043
17.1300887277823
3.50282372097232
3.53832594901309
17.1283013343527
14.1430993826135
1.99325075218664
2.67843886179738
14.6655888944071
15.2818580224342
2.75805278728855
2.94219011408189
16.0348012959613
16.9463018099611
3.51367610861772
4.74522700909843
19.4353548943357
21.5864360716868
6.78873769072571
10.0433749894013
28.8417056013757
31.7879238804183
13.512954320198
15.020086817227
40.8200641005154
43.2491078115096
16.7969181851257
16.4154915612691
42.3817155577667
47.1530430760118
20.7869716051166
20.8362623440344
49.8184039172525
47.53569875749
18.0409300979234
19.6509512970887
52.3307033021513
61.8649107029552
85.4113820894586
76.291950240149
27.926824008963
30.6895104438035
78.2890620335879
71.3666066231441
28.6156831363698
23.7690063294955
68.022566367185
85.5395201502514
55.5439922598634
49.1745161700995
73.4745164730982
53.4716301008261
23.5452905424151
21.6416248007801
48.6657338663135
49.2829101956734
19.1593907369444
17.6689365501557
52.2889965150908
53.3298749242474
17.7632949905939
17.5214691041615
53.843458350915
70.4458315152869
24.2136591521117
24.3410227102835
70.8186524645368
71.1281514022307
23.6989972933629
23.8405160800228
71.173834609126
96.3629430929092
34.5736384076835
33.8740248356014
97.0487834000355
95.7655440689481
32.5619283048573
30.6811714506958
90.7239822019246
79.0964886528662
26.2223286236214
20.5288405206718
66.0006895768605
73.8017930799734
22.9459637267524
23.3488887940124
80.7371910335743
83.7878904953804
24.329799084884
22.0950258930826
65.307364009968
49.3649722407329
58.1645624875709
39.2758055569909
16.6819525540233
13.4827423434807
37.8998025279179
42.295304153847
12.6098703899647
11.4106418805061
40.3311118577229
34.3253975246825
9.19917247142278
8.64934122420837
32.8794392953069
5.82401354509753
4.05691945222662
3.8426956511759
4.60306882926346
2.65924768033844
2.29878989965975
2.06302785709396
2.22839801961003
1.45122003456983
1.27247220629752
2.34862356841347
17.52930192344
16.8676985907242
2.23264392544626
2.16981002809736
16.181048624947
16.1472533197888
2.15327864515321
3.9751200313881
20.491038092007
19.4159716397258
3.90509620492849
3.82417064892813
19.4295256881172
15.5312529618555
2.18298186003059
2.89734808676612
17.1087358579026
18.0302693619551
4.05208306942697
6.48920379860782
23.3511305083496
25.7297994624887
7.96634938604491
7.66118313523559
25.6651255889226
30.3759652620742
8.71330486301805
11.6666416747883
35.3627270251304
40.2740440565069
11.9818387453746
16.3070347792184
48.3621413420532
56.209901022816
18.9528355565217
29.3442644331337
83.4761487835643
96.8262812587499
67.1666667900367
65.9366971373247
95.6110253115118
90.460287112125
30.6092546195447
36.3408847267728
105.460101184021
106.086964026122
42.1734960983446
41.2242827358059
107.55647787249
131.395554688272
46.1216511451065
53.1629652944326
147.584313188846
142.412816343067
50.8700540027483
51.9914984264075
141.384861037337
143.796972268792
52.5070558001885
52.3856723962297
143.92597709655
145.017408151305
52.321376136123
52.5565585869261
145.249442258283
145.555741127407
52.7496793678751
52.065884871643
146.105530217409
146.239248040358
51.5276287137864
50.265103278375
148.137811115165
151.470225090449
50.3358746044427
41.429579215621
131.417937295966
96.543023262788
30.6177729408416
32.1057631776299
108.314176846198
113.734515544895
33.8199891201255
36.1150534852604
120.514629891562
86.6165328634213
24.7237966105355
25.9870854474236
90.2499146271325
69.903218990375
23.1976997260152
17.380197512905
40.7935979182832
61.4850770843503
51.7834186389192
54.4767039627225
65.6007631027808
42.825264854808
17.9070337308315
14.2918400424393
41.4652392928472
39.4148816641974
13.763326867017
12.9701419596081
44.3949998296804
42.2869845977234
11.5918009117718
9.43727896324277
36.3333941529859
36.5979530472858
10.6978866991985
10.3443425778638
33.8868456019052
5.72104383314147
6.36099138964203
4.98196082876226
2.31409988233749
2.48114966490732
2.20195048223604
4.32144219624141
24.3355459500217
23.223568399597
4.2092947996175
4.13143324669336
21.9532580656813
1.9144209509652
1.16199941533187
1.14767374708284
2.21395209825336
16.771595869429
21.5703516900395
4.0231259782443
4.03186262403218
21.7662099491775
19.7543371130472
3.56327500789241
4.47928782786312
23.1043246754731
28.0426738989365
6.9536608675137
8.82389986445154
33.1646883376537
33.8773129012515
10.5075006504877
9.04012713306278
31.3620981113587
33.1522110651409
9.31343592076825
9.7945914397442
35.529875494824
43.0265013332713
12.5334142210965
17.3007677683597
52.3136694484699
55.2907815295575
19.3625438672261
19.5950204469581
57.3787724556092
67.0142106457155
97.1074979545836
95.2681177448039
31.6808030853294
37.9077786010938
113.88166219623
127.133240227996
48.1575914911218
53.8980399946361
146.719571943791
192.67034820558
59.6779583021447
65.8938888218326
258.224518233111
295.100566362667
66.862735877352
70.689724200332
283.718955842133
277.240520098237
68.416852829999
70.4958024654126
277.801439271042
276.991963848141
70.9469624095065
73.6717614533418
280.31902867444
284.989735658624
72.8771176826016
72.5289370460203
286.31800401785
286.228178189188
70.9558988685197
73.7398077611706
287.297392614742
289.902002112859
72.8899004365857
71.7389591136714
290.083177881014
290.132290720055
72.6860545442459
73.3666683192602
289.748545212689
289.246346144435
74.6933261442974
72.0790853264656
288.044577139339
288.415087732554
72.8108814953762
72.4397882273231
286.608599050889
284.154154825402
73.0591347852895
70.4165455242718
281.255319696875
282.262107211
69.6384577424851
67.072169913399
281.871609043642
287.210046956144
67.8135350267195
63.7520295963803
298.842197421097
259.130759935585
62.4439760245798
61.9878884102224
247.734860840259
238.771339676943
66.2969867586943
64.9348093018425
232.990220689619
230.224030390118
67.3356744726815
67.017212647056
227.437616095961
227.755605633998
69.7110361418009
68.6964869862863
228.14741984321
228.372214251858
69.603578085474
68.4249369878573
227.492949895586
227.746503652656
70.3017054981929
69.3213520952389
227.558985682406
227.715883343143
68.8960909768304
68.2537773049137
227.465243168677
227.226637625663
68.7874635445674
69.216488732049
225.628813588861
225.167439994252
67.6333446324631
69.2579021714362
225.508097184831
224.942930373636
69.0279821443803
69.8427270543407
221.68716595007
220.4999919484
67.1687783052531
67.7229436119035
222.218398964911
224.419638169029
65.7301046379727
68.8763690970525
230.971997773906
242.155508409797
65.1561595624263
66.3922801677622
36.5808115992274
23.9409991737562
13.2982904750625
10.5586055474848
7.12084478410792
6.01091171219012
3.57272607263504
2.80067124254691
2.46860622772566
1.85844774279177
1.80218388045187
4.13577453278172
22.656982233654
23.3843231073117
4.32648397560673
4.54501081684942
24.9493265225141
25.1188323792312
5.06154139165138
6.76661657394619
32.4937738554384
30.9133078804803
6.5412812937413
9.70623452680963
38.6436551658737
39.923325271031
11.5084769404553
9.66667661806404
34.4529400896337
36.6063721031588
10.0069113573718
10.3534689453243
37.3054347733142
45.2930167013149
13.4489813020192
19.0722066961846
57.7636703195422
62.8679800428726
21.2160126036388
34.986245583469
75.5388586949145
105.862592053819
95.3236378810906
123.214845037432
39.7006883816186
50.1046608637564
144.618457857152
191.95845545023
56.91900713602
72.4708513402296
290.983173349137
333.512158899023
73.3977715120238
73.9681723835141
314.912477500744
298.78263241094
71.3100255213943
77.1421011544512
292.082422805532
288.663992077298
77.9888851812777
82.2459749099172
294.693246505059
299.829285291863
87.0293809661994
92.3452435734791
305.729550726715
309.687810956114
95.2497504928087
98.8577388202329
310.504989690887
310.955699563715
101.348050469783
108.635780588221
312.906494902159
316.46023220203
107.318842819873
106.334732892884
316.182061347596
315.741677393735
108.082348751895
106.383570201429
315.31398537202
314.018702646102
106.496234726491
100.015554079442
312.205953273479
311.926878258483
95.2501137646587
90.8789831775526
309.665736512866
305.078783958885
87.7422476636179
83.3846148096247
297.829276205222
290.369863067122
79.0339244285468
74.3376462647292
285.146825730523
294.748657683747
72.7831079505984
67.9333603161975
311.173432075852
256.592291635134
59.288023445577
57.6887543437323
251.848895542362
165.971285888851
44.0657794190003
47.269205300175
174.484544280861
189.656931149027
50.5016741300895
53.9004955179595
212.508699326285
129.273462008651
38.3921497498422
40.6262462700209
140.966118125582
93.6019765272536
26.2828480353587
27.3423652299316
98.528027943214
75.2136247937469
24.1027417049175
24.6291487699179
80.7188621416844
59.0922592226639
73.2846444520826
48.9249764598941
21.0677769970777
17.1556471675
48.0445821968846
51.6549958455861
16.1209173790329
13.4826162284571
48.527307123439
44.4205324762546
11.8044250092636
9.65201983636143
38.1641680359829
38.577891219748
10.7736877268867
12.2298810245569
45.7245791324386
43.2680177597317
12.2545708370079
11.373156018518
42.1431518209535
33.3179016394763
7.10002436704525
7.1153185241611
34.2657849853422
28.4590086343164
5.77134294115728
6.21837427970554
28.4570547292448
25.6361646439372
4.483920150235
2.57626715577095
18.8750519893219
18.1428362011483
2.48988555356888
2.50535428604008
17.9956534145556
17.3751133554771
2.34157279567921
1.27906275012775
1.47423358382325
2.00317149536075
4.3154560302305
23.7983922642449
25.3020773374228
4.58839642598373
6.27769840325781
28.143239448952
28.3050318032535
6.16177178269351
6.64503950691551
34.388428159217
33.4314344030445
6.50588378768661
10.1146626200273
43.6770250202844
41.6938239247196
9.94505577858997
11.7480125333761
43.0869047232015
45.4254887415097
11.8708866960714
10.2935619222413
38.2784465560401
38.9181657620194
10.8268739856997
14.3187068833162
47.6415003842869
62.7652889778639
20.1211614471225
22.1172833300747
71.3770425637431
90.4918859215033
125.80761044592
101.558734458575
37.28870345524
42.8265259522644
144.558995388192
173.30970433857
54.3045544323476
63.1335077064602
237.031724805382
343.546968826345
73.6398627435318
93.4090831821342
452.238985766434
422.256118539533
96.0450360226102
106.351349471235
424.945792718913
504.333761382595
133.54367651942
169.962090457747
641.604726634636
799.843875445857
202.006913006229
215.663193807981
845.509226259185
859.997648025819
225.905889651105
240.985966075048
863.359270037688
867.349717900874
262.698073754785
284.694220045131
865.551359594574
864.018480787824
304.376273826374
318.86537313251
858.110508861781
856.534771832586
331.594173503431
340.428548126793
850.441953319364
851.33492490317
349.52833359138
354.769778598061
848.163971406237
852.311607630654
361.971740287674
369.941882532213
852.73205784063
858.469371390095
378.008578174633
377.086197408181
867.002792679727
869.947044640624
371.740479811424
369.158747250686
865.837768084021
864.036371411144
376.657723309068
380.695154940354
863.693421999323
861.714400674877
373.629302480591
372.358591442241
865.551236030792
862.172761840571
370.689841220997
369.809382165177
864.672236050268
861.207078536316
361.579309649664
353.104502218136
862.860426779847
860.918150319464
343.297197801456
333.146255329781
866.095953533897
867.21748422721
319.214674406815
303.635662959601
874.568320179862
877.072517936962
283.330530856586
262.845941839604
881.472300780149
879.488997424418
242.649842257917
228.540421596672
876.442383907864
860.275504508611
218.035215569314
202.980991532546
810.564750371014
646.172619662747
170.759579154149
135.975712602919
518.122074915393
458.96510243465
111.088087556885
93.5965863099279
459.029744371684
325.558349005542
67.2417087738515
63.225463140057
298.863133312938
281.404185582319
61.6856520411759
58.9632616736625
265.337944259182
335.548092557383
71.2268217043242
77.9494364540212
367.142894390823
408.046303527492
84.0929247509533
99.9959914718205
400.16823352324
434.9406431638
121.768029415114
160.947740648966
586.831352978024
704.64348528777
194.468608024694
207.369684256213
741.570373248518
755.917912975354
216.600978840022
224.599453401362
761.977354155735
768.100059680451
239.870567591135
255.911795168907
765.769287611144
767.668133946
273.762584658754
287.99095368172
761.83938973774
763.975462861621
301.332437193548
311.066814254106
759.173341029793
762.842512989222
320.627548842658
328.456076435667
761.35925452823
765.380034856986
336.571278408128
337.496300367402
764.107232306726
767.029437090377
340.09285012499
341.063778094676
763.925294141415
765.900563371268
347.485743879543
343.528330914985
766.461064444404
767.142681933392
337.514549334669
339.843420836673
770.377755787962
768.603676029783
343.562599128604
344.405491009637
760.679873971498
756.222873900231
337.166095871592
329.448083721201
755.246941264013
751.079230083478
322.410955893583
317.503955104101
754.046346699432
751.218252854062
308.324659230367
300.157715246443
756.767899996394
755.082228812711
287.978820409396
274.699032841037
759.437587121059
757.017674933222
257.471747595402
239.525008011955
756.888161060077
749.566031919159
222.745827158899
213.878830540162
743.667086451005
730.259185470071
205.092341470767
193.003575979601
696.102874173566
582.133424920933
160.035836767661
118.53450396463
425.967209915993
482.76277629803
148.20954458005
174.377500975911
546.37990503175
567.406510035071
184.65327302032
192.593590547934
578.301435727876
582.353494583238
199.687702218658
212.114757675368
589.214067121551
589.432615592727
226.103478732605
237.847306565945
594.636299650341
591.889694849242
248.680450888677
258.598434658573
595.753465158669
591.171372500709
265.747062114473
274.097755987564
594.790037184357
592.448761112551
278.650068204898
284.712321486911
595.816914036948
597.194928418466
292.231643232353
298.141451433391
599.923519576333
606.496511218593
297.318927035984
295.445614841072
607.509145094086
605.23401691783
293.397407884909
297.229260402866
605.071517056542
604.438890631563
300.888223270021
296.103246739302
603.055304934439
605.222293332696
295.396660486353
291.948366773945
602.960386019947
603.227971263928
291.205754195406
283.872399667305
599.695592927718
600.775168178035
276.754954729757
268.527062226294
596.522670366339
600.534884186794
259.691608547571
248.840856080113
596.195564214943
600.332088664174
237.327160366998
224.852715454897
594.997095961025
597.095448490034
212.788998105291
201.102554955213
590.555571968999
586.28117969958
195.028021051263
186.835061497884
575.438956149438
553.55555250388
176.203776839465
149.300775768817
487.680486649225
400.180671710587
127.605210860834
99.8042806908716
355.212503508425
353.723947495997
88.334025702141
79.0454243077013
319.192138114765
311.023654634735
82.9169068205993
90.4910148416753
321.736079722146
334.053624005296
96.6486587337719
141.303866287008
426.4197103087
436.036306119203
152.709293699603
170.541818348451
438.639964889897
439.356273917475
189.630699834843
206.109880631618
439.402618879916
441.496694423664
219.39725220081
224.531746266257
443.455643190164
443.476212547467
228.765260832626
226.398384130439
444.476871683455
445.573446295792
227.19712669061
226.469784882003
439.634071840704
436.431195990686
214.459804293356
203.793215697927
435.675181929076
436.137840283046
189.474979134238
171.822805806269
434.54462003754
429.812960308237
152.712454346385
139.767415232824
420.271690199426
396.034274291842
125.693208305422
97.7202272852181
351.482814914516
332.903429139491
82.6652385027389
94.6694254297645
372.391033732171
375.964764851726
87.7605323651632
84.7481317674146
403.138200690542
315.672309006419
70.6701565322268
60.1003369433611
208.485494820824
298.655609937304
70.7184338100028
79.4075651502174
365.464487475764
341.499586876121
80.2696636316794
76.0806718556337
321.622057184139
309.987686741308
75.6182790601433
83.0465274316618
313.650768400049
319.552578800265
89.0477424061332
95.2877965629528
329.370072829129
335.600326975653
103.44428139906
115.348580205671
338.85006556881
339.800921865976
125.761852886369
134.880369679679
339.148923284012
339.07699587816
141.752186842531
151.358520216175
341.203049686661
344.91808335921
151.31497362093
150.643420258018
344.461598822314
343.880436078354
152.348002291112
149.253668041865
343.480033841183
342.602313237477
146.508027675994
136.700720214171
341.43042210172
342.372366222169
125.751023344038
113.857295382163
342.419447618278
341.160721474219
103.372730567915
99.9436884602308
84.3699064542148
80.5344421819044
75.8589647030952
72.9214783155627
63.0109388822559
59.6687765061789
55.5577615360381
53.4054654245517
43.9978665564681
41.954114121736
38.1386600361435
36.7237931554312
34.0679693291448
32.3815138872459
30.5869527547441
29.2869424529669
27.1777332001042
25.4704605540601
23.5533742829789
21.9163528589574
20.125840186827
18.340780219676
16.3073608979909
14.6938662264769
10.276137943665
11.5549738244056
9.2349135178289
5.88478227958621
2.86555522042145
2.03183551766379
1.42537895685703
1.54005539915729
1.62299504750742
2.63604596204075
18.7887368953382
20.7416011761649
3.89627477412951
6.81295470910494
28.9047743289772
37.5528948001595
10.8094917956894
8.2969878203582
36.1597200804619
36.9700133596595
7.00201417394824
6.57055622363152
35.3626429104703
47.4440041802441
10.1392048656459
10.2157696039216
45.6470912442532
47.710126320574
11.9675064115675
11.3664572535792
40.990119095564
42.1367779329604
12.2097738146886
15.0277181006808
51.2872500348705
67.7535287032951
20.8165663661465
22.7147631565198
77.3095472400249
100.156146145227
144.757970908933
114.96506511298
39.024838850748
45.157108290631
172.701228375246
223.672361130813
58.5213665216994
69.3196171809725
362.190534062461
552.556668947919
84.7793212097564
139.643467180596
826.224653886839
775.301623659848
141.564960398043
170.597295854415
836.005608101955
1113.02299882046
216.711350728917
295.788941481568
1600.75820066789
2128.44844114649
401.31787893749
436.415387004125
2238.61712572215
2241.83169402311
436.852760057681
444.346358712811
2197.43929288623
2125.65410945698
461.579733156312
481.750422704557
2079.51702957965
2110.03208701162
472.165481944763
443.165566834721
2158.85133663921
2193.51550073883
416.775692051706
409.120967680089
2218.39933355916
2224.73601177894
405.67402837486
409.524851209538
2230.19459916645
2232.71508322171
409.052133280262
411.521502179255
2225.17575808249
2241.04339433272
417.563475823123
416.757644649633
2246.77840344526
2274.53141541902
417.065891647275
412.924285365388
2265.29773493298
2244.61747695374
412.966576247264
416.771136404624
2246.9054925339
2248.3979467854
413.780641970067
415.2315236553
2258.66958356695
2245.45280211834
415.067862328209
415.08612823392
2255.71623462934
2259.44219189095
413.270518215884
409.1993151226
2255.3202582093
2247.59411046327
411.044155816109
417.644527567368
2222.2868391843
2187.24972390702
443.556583171607
474.309463991781
2142.40180055128
2115.53413919006
484.897019957604
467.601777695463
2165.05745520937
2237.78324853786
455.465240459435
453.863309883355
2281.70943505207
2273.03612243208
454.914535031973
411.898072322156
2150.33999518638
1607.51981566476
298.127465401635
217.790624856119
1147.27506590748
908.641367016684
169.28575858468
144.706413243608
843.320963811802
524.812448548706
83.1611125157424
76.7285161836121
449.106571479766
401.146340254584
74.5534142485616
69.3993478438994
353.9253740596
529.32314756832
101.269903295006
114.210696990348
620.63820058461
726.799852988334
125.708627709919
150.036515470571
766.110193899847
942.917707268834
186.823981023345