/*--------------------------------*- C++ -*----------------------------------*\
| =========                 |                                                 |
| \\      /  F ield         | OpenFOAM: The Open Source CFD Toolbox           |
|  \\    /   O peration     | Version:  2312                                  |
|   \\  /    A nd           | Website:  www.openfoam.com                      |
|    \\/     M anipulation  |                                                 |
\*---------------------------------------------------------------------------*/
FoamFile
{
    version     2.0;
    format      ascii;
    arch        "LSB;label=32;scalar=64";
    class       volScalarField;
    location    "1700";
    object      k;
}
// * * * * * * * * * * * * * * * * * * * * * * * * * * * * * * * * * * * * * //

dimensions      [0 2 -2 0 0 0 0];

internalField   nonuniform List<scalar> 
207032
(
0.015761851242275
0.016796077519011
0.0219874850054228
0.0209310650683249
0.0164763480300458
0.0163987333744059
0.0205332365637015
0.0198797965434079
0.0195109702006011
0.0156667942899015
0.0160019546438724
0.0154894994494012
0.0153165171446541
0.015381190316835
0.0155489905594553
0.0161353852224367
0.0207216114966958
0.0205280704986613
0.0157371448926084
0.0158301820381679
0.0218652893250326
0.0218088718156102
0.0162938787941012
0.0156319535964272
0.0154429618078385
0.0155156187692343
0.0157279604896076
0.0165270976998026
0.0229434557675422
0.0230973543353355
0.0159823545719107
0.0168292416922444
0.02421543015817
0.0240202529224278
0.0173594284461341
0.0173438057448615
0.0247592810500679
0.0233477384351146
0.0169337553965616
0.0170334282402002
0.0230868724952699
0.0223086990155613
0.0170934999814323
0.0169634139131353
0.0207072997550568
0.0194003461028673
0.0165805615065131
0.0160013998636531
0.0184433210686152
0.0170955689702606
0.0154593808689965
0.0151585877484711
0.0163352309733008
0.0157529012027682
0.0153139956450304
0.0150257862088625
0.0150622560921044
0.0150487547554859
0.0150141970692126
0.0150104682160601
0.0150068860982804
0.0150209057412234
0.0150425421397112
0.0150806573133119
0.0150462831586597
0.0151573875854611
0.0163774705035843
0.0164072603097203
0.0151733392870607
0.0150558110338702
0.0150424546388921
0.0156348906821014
0.0157167442712509
0.0153049614871775
0.015315178856758
0.0150205610750882
0.0150220947646218
0.0153518025871315
0.0171368296058655
0.0170256864292914
0.0152768223206014
0.0150893130065942
0.0151442499929845
0.0151583917011916
0.0150978103131945
0.0153752383408099
0.0156016289657307
0.0156201954744614
0.0153897609379941
0.0152670771667972
0.0154094495971166
0.0151770261120092
0.0151112228618912
0.015077773797823
0.0151146690004993
0.0151933477862079
0.0151285165658141
0.0151791916356575
0.0152431504496922
0.0152884595239841
0.015232389692056
0.0152892468693636
0.015355927082259
0.0154807928921317
0.0153628479304326
0.0156933023999775
0.0159885639963688
0.0163549580483522
0.0161064780504492
0.017418760937006
0.0256699561168038
0.0253538756986582
0.0178642401376828
0.0180155098196808
0.02595873831018
0.0252795421617146
0.017577581972654
0.0178954153363396
0.0261740225754062
0.0269915508130925
0.0181226253720402
0.0182587028975742
0.0265712760283598
0.0268056036370731
0.0184033434988922
0.0181344173419977
0.0273411017682012
0.0300873072603721
0.0195042982784023
0.0192227756190845
0.0290580142492527
0.0285363792648392
0.0185521367745856
0.0183661909439344
0.0303875978570833
0.0293155062266483
0.0176894299934337
0.0172661089575125
0.02636630640598
0.0242387313150492
0.0171395356284992
0.0167650154006756
0.0232766962186772
0.0217034971242571
0.0166906912349408
0.0165092413829551
0.0203857731739033
0.0191282925724759
0.0161765314098996
0.016438005225246
0.0202472461395593
0.0181784125523227
0.0158001021772088
0.0154920518043557
0.0171666837932047
0.0164044982176379
0.0152255701989349
0.0150576690062275
0.0150234708083632
0.0153197462353856
0.0158162702828676
0.0158129968094952
0.0152850125813604
0.0150104151643927
0.0150322233002341
0.0150185885157382
0.0150071932026515
0.0150120215915343
0.0150339964373569
0.0150384855917571
0.0151231400846252
0.0150924577608788
0.0151789039750113
0.0163975817356712
0.0164203127052442
0.0151142073313417
0.0150151796649218
0.0150033147849117
0.0152869459447839
0.0158169610837448
0.0159095669676266
0.0153427517013212
0.0150009884770858
0.0150115670650102
0.0150062958284183
0.0150037270133702
0.0150018068473937
0.0150037415434242
0.0150080291433922
0.0150030741873459
0.0150046853006899
0.0150159527288986
0.0150104648230576
0.015004048312538
0.0150026484481602
0.0150036553189579
0.0150007368836514
0.0150004750785165
0.015001092825903
0.0150024429760066
0.0150057239438204
0.0150025135354989
0.0150068457234912
0.0150179890492872
0.0150590102139147
0.0150298126165256
0.0150142209489531
0.0150235809765782
0.015064975094521
0.0150468078415774
0.0150709575320291
0.0150885557093498
0.0151206512717481
0.0151056556182953
0.0151421931676177
0.015175825982902
0.0152163885836694
0.01518164302247
0.0152268723414126
0.0152625418628058
0.015278241297313
0.0152419387180444
0.0152986479622914
0.0153510782295564
0.0153704161557194
0.0153171126444636
0.0154557090659508
0.015596329165912
0.0156361890053864
0.015517012865747
0.0161645352744494
0.0163875216451054
0.0163732492375468
0.0161633918029126
0.017979443383008
0.0181428936720832
0.0182727706614482
0.018302876709681
0.0181265976917217
0.018106900045565
0.0192370647262253
0.0306315696698705
0.0315719880709424
0.0194714446925911
0.0196236385012513
0.0350520094074732
0.0332709509497758
0.0194317086612454
0.0186554305088289
0.0320877422694801
0.030429386958259
0.0185419723062413
0.0166983586005974
0.0160868419985929
0.0159316920062232
0.0158924470125537
0.0158395555301082
0.0159638618322261
0.0159729682532454
0.0162829867071719
0.0256615405656694
0.0242207989163872
0.0161990821404952
0.016153251996577
0.0229096907271905
0.0216679411802992
0.016131372393574
0.0160857398399498
0.0203386752822923
0.0203442667098034
0.0160671631391857
0.0161552543543881
0.0196495661191209
0.0181937114049106
0.0156976072830002
0.0153847354603922
0.0171657339018052
0.0171908840231609
0.0152429451642925
0.0153714626526092
0.0174192895165503
0.0165754956731461
0.0151585898338016
0.0151338692050287
0.0166614171362388
0.0159604056297285
0.0153731550339109
0.015003260222604
0.0150099528552833
0.0150066004957671
0.0150029627999221
0.0150016711989858
0.0150036767203214
0.0150037656872798
0.0150016598525115
0.015001615125834
0.0150041404597014
0.015004721743265
0.0150015620442925
0.0150008239827932
0.0150043750521925
0.0150023083844679
0.0150016652240885
0.0149996647424877
0.0149997672035044
0.0149995451849507
0.0149989930731061
0.0150016557564031
0.0150044031807667
0.0150185652624895
0.0150103564510637
0.0150073447547873
0.0150097303469466
0.0150310919255207
0.0150222728874038
0.0150568612652263
0.015074955788537
0.0150947122294214
0.0150808280083481
0.0151133999451729
0.0151235132079232
0.015113072338617
0.0151020341153219
0.0151351514280691
0.0151452376349662
0.0151560352438855
0.0151407373161033
0.0151752540982758
0.0151892794476144
0.0152077847953799
0.0151928898624955
0.0152438790812642
0.0152787742047168
0.0153001128409833
0.0152657074129175
0.0152858234350486
0.0153200335313595
0.0153398356858303
0.0153059813850182
0.0153687922037761
0.0154296757805285
0.0154495577139817
0.0153906972259377
0.0154802780707784
0.0156067703813187
0.0156203858243133
0.0155045971939436
0.0155564425214946
0.0156608957636004
0.0164275524508709
0.0162303375220464
0.0162192978705266
0.016411803031057
0.0165624046482632
0.0163921889643667
0.0182359071661049
0.0181923962011197
0.0186360803140061
0.0187410285421962
0.0208596925140327
0.0200685906643355
0.0356807913085561
0.037910910668793
0.0429873465698615
0.0392394494999974
0.0201300980289266
0.0214759620416965
0.0189336233335279
0.0193193729635364
0.0193257944272744
0.0189614679705488
0.0214004991710404
0.0202305811953381
0.0419552587859872
0.0457996003692956
0.0440568986771031
0.0208651141543609
0.0201141362396143
0.0417049364184051
0.0432977205453191
0.0201303133086217
0.0202110106561248
0.0436437349370162
0.039055983986398
0.0202221387796859
0.0202296046973687
0.0398087266035118
0.0363996281076824
0.0202196193703445
0.0193893920756482
0.0360049116968105
0.033908474302552
0.0190332603479397
0.0197336347421859
0.0340820446718705
0.0339240117418725
0.01954900437365
0.0179942278681792
0.0298296470678028
0.02727714789942
0.0172357214022479
0.0168619674903591
0.0250485525936618
0.0244710923814748
0.0166556391594624
0.0166294846063583
0.0228750285889276
0.0214099810666956
0.0165941443110895
0.016576754591235
0.021481911100233
0.0223921062541293
0.0164451755684325
0.0163365933809652
0.0205617286298222
0.0220308896876112
0.0163449653672156
0.0161344704434265
0.0215266332920162
0.0228200794860068
0.0161542431866788
0.0161793305288116
0.0243327973233889
0.0260459238224295
0.016236965945532
0.0163101865191941
0.0280187556485191
0.0270682815868072
0.0166808837896433
0.0178632898957867
0.0286573100240004
0.0252424745021374
0.0162155494766626
0.0161012181114862
0.022649692374564
0.020209922403238
0.0160350561259178
0.015618525335963
0.018556962647412
0.0186634279634104
0.0154507306962032
0.0153333133214491
0.0175281659923018
0.0173192920926797
0.0151288198244795
0.0150602031671385
0.0165549518677324
0.0159013135881324
0.015340731697657
0.0150016304405014
0.0150071246550368
0.0150113468498158
0.015002571564463
0.0153398149407926
0.015897874124525
0.0165496878320907
0.0150680890454346
0.0151451597662009
0.0166561631632101
0.0159570524925155
0.0153704870339311
0.0150047503653768
0.0150090241505904
0.0150087988404144
0.0150033731365958
0.0150028008579825
0.0150062387169376
0.0150048438023524
0.0150018098874277
0.0150015718165429
0.0150051317908548
0.0150066330143054
0.015001698924454
0.0150014147893802
0.0150115542505978
0.0150434254429427
0.0150089174478357
0.0150050096175524
0.0150021646333582
0.015017969126042
0.0150368802375114
0.0150769412477249
0.0150453916349973
0.0151035633581783
0.0151683987004553
0.0150694924042492
0.0150395023410979
0.0150895515832362
0.0151295346300482
0.0151549879977429
0.0151197509095393
0.0151598555835252
0.0151945830954824
0.0151317367980836
0.0151184848007668
0.0151538017529397
0.0151664748988758
0.015155722306686
0.0151466736070845
0.015177656357434
0.0151867572532754
0.0151778985852584
0.01516903506942
0.0151849696003811
0.0151947063588957
0.0152055428640062
0.015191209022228
0.0152099422849384
0.0152238995417098
0.015226613682176
0.0152122231967776
0.0152312207673306
0.0152455919345175
0.0152651324456718
0.0152506870407088
0.015270028388474
0.0152849669382089
0.0153584770317451
0.0153253592548501
0.015342342132717
0.0153744959649337
0.0154655840972401
0.0154103382742591
0.0154292238388215
0.0154815678819533
0.0156335350831676
0.0155273534044885
0.0156116381589044
0.015688825161697
0.016484371021172
0.0163105666253108
0.0165163825500279
0.0166311621075401
0.0172257353614415
0.0170544176712941
0.0171270942991768
0.0172834834874062
0.0189537670400571
0.0186438848513293
0.0186027700234943
0.0187508810657018
0.0200803550355665
0.0439907455775679
0.0468741113081953
0.0206997185720067
0.0207149595004377
0.0510676579480797
0.0476734311535607
0.0201126132159433
0.0200406274017532
0.0490371167002206
0.0454001591467689
0.0200495374217556
0.0202215783664815
0.0422011302417706
0.0437525074401625
0.0202726469624921
0.0198570251552855
0.0394787568688813
0.036485905752612
0.0197752879172981
0.0197411847729958
0.0356878809740293
0.0337509004935582
0.0195220909222712
0.0192445607541608
0.0310774769423274
0.0283915383777335
0.0175928235720185
0.016784217784946
0.0263119736910769
0.0265489189731746
0.01671656481744
0.016651488189635
0.02471187436688
0.0230705119808269
0.016609367286068
0.0164739718082596
0.0242598207510429
0.0235884195625058
0.0163625793475869
0.0163976148685495
0.0254278577107978
0.0276014437990217
0.016457241073479
0.0165364407733309
0.0301315928024178
0.0330490325052667
0.0166849367675156
0.0168584944897647
0.0305188678305816
0.0290361578634277
0.0175854070006486
0.0182622787054905
0.0300071710093499
0.0318623566027894
0.0183486505210285
0.0182201897186762
0.03058473239176
0.0296785027211136
0.0172602478358296
0.0167334117236317
0.0260608958302084
0.0237846246556665
0.0159073414297878
0.0157695576944297
0.0217791401463683
0.0200771019706091
0.0155971147849014
0.0153856484597087
0.0193184083583986
0.0182306949366298
0.0152166143295699
0.0152755612073957
0.0182184473963809
0.0173128916731371
0.0151358306413372
0.0153548458376545
0.0175183800251501
0.0174084621828938
0.0154458739675955
0.0152671697030144
0.0171650518215265
0.0171483504064413
0.0153698198907092
0.0151671186142396
0.0163892707798425
0.0158087682069342
0.0152825181187588
0.0150062350088164
0.0150261506664709
0.0150135666783357
0.0150039512098802
0.0150085857578662
0.0150306828259106
0.0150513323233384
0.0158154721017687
0.0153167900419199
0.015017075741109
0.0150270911131241
0.0153126238795927
0.0157543232318061
0.0150625456673978
0.0152643813023762
0.0163401262404928
0.0164223374781838
0.015251313793357
0.0151625954290176
0.016371109109529
0.0170316969632659
0.0172044803058513
0.0155180261002148
0.0153560925656842
0.0156534544553077
0.0157846012677095
0.0184722952751776
0.0180769761699511
0.0186945591655436
0.0191392000005819
0.0158669272286417
0.0156499582048172
0.0153997682527804
0.0156101662294934
0.0155899454398251
0.0153856485996183
0.0151147853129185
0.015184726454774
0.0152091010707884
0.0151315647659873
0.0152781198232569
0.0154129925833069
0.0154869010583016
0.0153282192550743
0.0154033581771754
0.0155647053595784
0.0152709516205828
0.0152112853587999
0.0152838105351572
0.0153385554044606
0.0152384032812358
0.0152034711565372
0.0152512422521628
0.0152816601092236
0.0151981614657869
0.0151854457128397
0.0152340756019259
0.0152438796188672
0.0152210229601997
0.0152130046015726
0.0151823840417138
0.0151926322309984
0.0152137975446104
0.0152056283554037
0.015203669365373
0.0152130911596483
0.0152322380668207
0.0152228617336172
0.0152290630694885
0.0152429355618711
0.0152625630595855
0.0152486633895964
0.0152681325254285
0.0152825209858888
0.0153024038354343
0.0152860668241733
0.0152877317463731
0.0153045775902629
0.0153251307574499
0.0153059950360732
0.0153592647861063
0.0153909114500036
0.0153972959160067
0.0153693204708033
0.0153829974529578
0.0154088452391077
0.0154905418432038
0.0154477573470836
0.0154568288263154
0.0155005930752896
0.0156359184665714
0.0155487279617657
0.0155630418981817
0.0156532847433009
0.0157042016631696
0.0156339614268343
0.0156522726452652
0.0157091277443461
0.0157121229850916
0.0157264698148055
0.0156213216581382
0.0156927373121666
0.0156910288036123
0.0156175364726917
0.0155403711039937
0.0156376097079121
0.0156290914322644
0.0155342044386638
0.015440506997417
0.0154875948322839
0.0154827288734128
0.0154364342546095
0.0154902253089946
0.0155236807181203
0.0155319726721721
0.0155342859691175
0.0155339596811482
0.0155079068026026
0.0155063299130205
0.0155022116710654
0.0155001254425853
0.0155146350422739
0.0155136866506629
0.0155372079586991
0.0154441042343613
0.015433925241294
0.0154309025757565
0.015434685586664
0.0154451745028416
0.0154395068539667
0.0163868402126293
0.0238993364500912
0.0221395389546957
0.0156830528825177
0.0154975940392339
0.02063446929961
0.0207470791998377
0.0156430506135953
0.0155442313534114
0.0193269769417323
0.0200144299349576
0.0159657494108374
0.015552746858182
0.018634777842924
0.0185944768240149
0.0157184651552264
0.0155002137771935
0.0181357316336925
0.0181578693208301
0.0156529721911568
0.015779196849584
0.0182242768504047
0.018638400882546
0.0159816907622803
0.016602788044493
0.0196438885809135
0.0203498314443822
0.0166705290257565
0.0164667710336667
0.0207287033438474
0.0211441421074131
0.0166178044042507
0.0162576984315159
0.0158609709003717
0.0205255378179301
0.0209129753529002
0.0200664905249833
0.0159746342922375
0.0156912882676798
0.0195988342665167
0.0220661443817002
0.0217253026505574
0.016269221452477
0.0166416065973164
0.0157283469383993
0.0155229653356798
0.015786024377141
0.0160249978502055
0.0154428319343838
0.0153848622383039
0.015413880189968
0.0154701965260069
0.0153065078092566
0.0152754621326193
0.0152672933856535
0.0152986619414935
0.0153063563685095
0.0152781582137335
0.0152999140024699
0.0153280737599614
0.015264865081913
0.0152517213945158
0.0152523161443973
0.015263118820808
0.0152397911738378
0.0152306051484011
0.015229890961301
0.0152393384265643
0.0152328582153521
0.0152247764233616
0.0152450386043115
0.0152531390237793
0.015252168067059
0.0152427680133346
0.0152627227879784
0.0152728543559809
0.0152940849766233
0.0152812823808833
0.0153007338109129
0.0153166345436853
0.0153233668169588
0.0153046860923245
0.0153146139187827
0.0153306072107283
0.0153422654535648
0.0153279714737305
0.0153289954100622
0.0153436101876392
0.0153434428653351
0.0153286646094393
0.0153767093293409
0.0154018715579197
0.0154110932568016
0.0153878690082768
0.0153971930040276
0.0154215351550873
0.0154996547444024
0.0154601110160163
0.015473544363206
0.0155147189282391
0.0156447810239235
0.0155644040403811
0.015584826410389
0.0156707198513232
0.0157214846816537
0.0156522081012555
0.0157106903874938
0.0157524061196894
0.0161203564872153
0.0161108899319061
0.0161411671322419
0.016144239755426
0.0166764089305308
0.0165734998358853
0.0166312567838169
0.0167219591333573
0.0173277191340751
0.017184942001097
0.0172569154707666
0.0173891876428492
0.0187310279157941
0.0186191125678361
0.0186668861866041
0.0187731416230809
0.0201885161282812
0.052031192065451
0.0561728930057754
0.0207769485025699
0.0208675125087751
0.0624468639261661
0.0573075256943898
0.0202895154544763
0.020147076546159
0.0595236185388165
0.053763534523772
0.0200797047619582
0.0203884496781647
0.0517300024952549
0.0538562674966816
0.0203898185673321
0.0203277179494344
0.0485314033496045
0.0429966574353378
0.0207335034828449
0.0212008150237329
0.0399304685132433
0.0374519435806674
0.0199600046127995
0.0178679550070819
0.0171132758813115
0.0166417464766433
0.0164913736779462
0.0188216304924742
0.0311228898004159
0.028619488531676
0.0172797126184398
0.0166904372800005
0.0315017575597277
0.0287379116676741
0.0165583794765324
0.0165103577376227
0.0263229840679714
0.0163300410809031
0.0159513884706014
0.0159798999089974
0.0155574748024121
0.0156345158514003
0.016163960937944
0.0165873291010764
0.0179861222168656
0.0315193303542446
0.0340320566488283
0.0186349279007541
0.019112663190984
0.0340923720935257
0.0278723241456293
0.0173855203243467
0.0168156748400464
0.0268322354533403
0.0273969260674335
0.0174640900476357
0.0165746710679792
0.0240839272515263
0.0223575181843613
0.0158596074665716
0.0163795309481123
0.0248059965954742
0.0222817709199796
0.0161507876635245
0.0165961624099926
0.0216641852008571
0.0228863830834466
0.0166509450175556
0.0166009556255891
0.0214025429177182
0.0204759744554099
0.0160077880267136
0.0159842189226137
0.0202540961116867
0.0195976896534935
0.0160683063982012
0.016396994109599
0.0203908366265602
0.0193598739982397
0.0161813307688932
0.0165902883842127
0.020689446433922
0.0210649408171723
0.0171367198204004
0.0171629713727162
0.0217431617416319
0.0223148742924273
0.0170960804228176
0.0173736629405254
0.0237424880753771
0.0233047757542488
0.0228578182530057
0.0165350889612882
0.0169346392935011
0.0174034777780178
0.017096164286109
0.0243439150349659
0.0246530010361445
0.0250837967154337
0.017703100940711
0.0179446440211242
0.0268331161538976
0.0263926967539005
0.0264460654250266
0.0178755810648344
0.0180500404335971
0.0174781981251225
0.0171391858826993
0.0169782908847198
0.0173773828305995
0.01606960941395
0.0158480665224014
0.0158470363346528
0.0160664620323165
0.0154997584377909
0.0154326261398636
0.0154684312218957
0.0155345640560274
0.0155014525500846
0.015447648944006
0.0152980306469526
0.0153283566483054
0.015351310596346
0.015321259277897
0.0153448015670469
0.0153750030346207
0.0153501298924938
0.0153224538462272
0.0152733539413921
0.0152862997370615
0.015284252590916
0.0152736710428869
0.0152513762839734
0.0152604722977282
0.0152598240367996
0.0152504725086404
0.0152710882525458
0.0152813074027178
0.0152743926105377
0.0152654734869394
0.0152846086507308
0.0152965087506366
0.0153201519879462
0.0153047863053521
0.0153155436030104
0.0153283773982277
0.0153411243384774
0.0153300147330774
0.0153258034606142
0.0153372475228764
0.0153366027661071
0.0153249184529707
0.0153281473593053
0.0153420917883782
0.0153551052236919
0.0153420971648669
0.0153419282462266
0.015355398211574
0.0153563563680669
0.0153426221316201
0.0153422553915886
0.0153561689965924
0.0153690458179121
0.0153550868968084
0.0153979731869673
0.0154205607467406
0.015434086748456
0.015409872292733
0.0154705863510404
0.0155090717210117
0.015528665790807
0.01548779458447
0.015576601241507
0.0156544544413978
0.0156879914929102
0.0156023514609646
0.0156691187460896
0.0157397215191242
0.0157731485848076
0.0157315157972207
0.0157521325129406
0.015794065903888
0.0163156309244382
0.0163073863002321
0.0163148205830811
0.0163155736549156
0.0164131893477015
0.0164184816508466
0.0164158950032922
0.0164008660528926
0.0167706581151373
0.0166924736305618
0.0167570609415269
0.0168234865593304
0.0174713648514148
0.0173408976320122
0.0174332294800108
0.0175634306595658
0.0188360860221325
0.0187338437110978
0.0188148312235573
0.01891102403465
0.0204061987883396
0.0635414690914437
0.0698847672714853
0.0209747188251606
0.0210995256974312
0.0205395098896255
0.0709875461459244
0.0789313064066581
0.0898683664317075
0.0212405639450824
0.0206890451060257
0.079810201571034
0.0836270946092021
0.0204451377337959
0.0203263909781044
0.0742906566275208
0.0663240292637963
0.0202280980112797
0.0209817539373996
0.0658391502082932
0.0659433486695304
0.0205529733659104
0.0204588225175095
0.059493250641148
0.0547284936336154
0.0231429047825982
0.0227152785874793
0.0482948647942657
0.0433118987707487
0.0231254119040053
0.0220353725988853
0.0387135927696796
0.0355034417832996
0.0213205317754353
0.0204245373111112
0.0350330422303991
0.0387861348500196
0.0188700174830288
0.0179140521336308
0.0346598065887017
0.016612680521286
0.0162138720368219
0.0163418181580912
0.0158346771389632
0.0158059853832334
0.015893176533901
0.0155140966530743
0.0158208734808976
0.0162832111787695
0.0175977041692683
0.0280171785813297
0.0287371796460507
0.017994040133925
0.0180868702157663
0.0289989307410325
0.0329992878933735
0.0192171409858473
0.0182714668695416
0.0305493898060862
0.0291725532569789
0.0181092662258275
0.0177367613647444
0.0278244511880368
0.0268579859991129
0.0171324138074747
0.0169709716102437
0.0315323734744335
0.028853286460417
0.0168415358084706
0.0167425882831174
0.0265994018733502
0.0245656565880678
0.0166665181445988
0.016619398723527
0.0242847660591474
0.023132617329562
0.0161120481716146
0.0163598456408243
0.0235179699223732
0.0220541936436574
0.01629530952279
0.0162568542383773
0.0205176339833231
0.0224505160876091
0.0163685225419752
0.0165717351581607
0.0216679123600631
0.0216939925923939
0.0166396075832701
0.0169861349623984
0.0223447503514769
0.0232926320570969
0.0178222069099857
0.0179056679766034
0.0236717944330015
0.0245700730318888
0.0177363443914512
0.0180979999476637
0.0247411084231246
0.0268704023960088
0.0181945800894801
0.0182193941586144
0.0286176188938929
0.0281497010109639
0.0179577502760309
0.0180486877521539
0.0178282661992272
0.0277790977999432
0.027448121416724
0.0286731228053725
0.029466165769732
0.017851403767383
0.0180826619835145
0.0172906163728152
0.0170009338276058
0.0160036795437679
0.0162279299524261
0.0161795059496568
0.0159781508750928
0.0155040748842971
0.0155703122153033
0.015529581247008
0.0154772513162264
0.0155044771466365
0.0155556688947969
0.0155784926309815
0.0155288958217839
0.0153680779273735
0.0153985555527268
0.0153714365672946
0.0153439720364576
0.0152950956883094
0.0153087608935013
0.0153063883438668
0.0152950665709095
0.015272266663171
0.0152822034437396
0.0153050279749511
0.0152920288338002
0.0152904794383003
0.015303663932492
0.015327802117514
0.015311085646008
0.0153222761488708
0.0153363609624952
0.0153498816303307
0.0153376325533468
0.0153310484395045
0.0153419630634118
0.015357179183929
0.0153468454774351
0.0153452279693349
0.0153558307885492
0.0153513721321889
0.0153406370577737
0.0153393998690785
0.015350447285441
0.0153645988517366
0.0153533972946132
0.0153554438158423
0.0153684095929644
0.0153687070121559
0.0153551818822673
0.0153555396234004
0.0153693215802915
0.0153823917435845
0.0153681921748989
0.0153676259743449
0.015381991935736
0.0154301929309202
0.0154077912904341
0.0154218771768831
0.0154464170558358
0.0155186230898518
0.0154804778212792
0.0155009959770559
0.0155422832486095
0.0156645236512416
0.0155876844404785
0.0156183761639713
0.0157048750598197
0.0157580919525846
0.0156856848697378
0.0157022808587309
0.0157764236471287
0.0158142741830169
0.0157715106930918
0.0157909204386429
0.0158346738001344
0.0158545110447032
0.0158096637616761
0.0158287803668878
0.0158747696089329
0.0164794906194263
0.0165014931040183
0.0164963166124401
0.0164646916781831
0.0165386079086519
0.0165758106033271
0.0165687127363871
0.0165229070609773
0.0168795372579801
0.0168223198368581
0.0168833193591003
0.0169372142486049
0.0176612919380324
0.0175321092024923
0.0176350872399115
0.0177648306922761
0.0189969884027906
0.0189082038731919
0.0190119556844677
0.0190941104592611
0.0192011373889204
0.0191238511273213
0.0213987655182176
0.10323398504871
0.0903341124804043
0.0208545865059965
0.0205802327502467
0.0945957240744673
0.0999346192742565
0.0212634583182601
0.0209535130501978
0.0960047870817378
0.083678237360135
0.0207756266924841
0.0206583378527919
0.0738313446370029
0.0706196624054049
0.0228053448862451
0.0229607626788445
0.0622382992118248
0.063280558896226
0.0243379409181074
0.0245019430901952
0.0542008668166914
0.0490532208508548
0.024563591216354
0.0245931655285376
0.0461343203536121
0.0552474879482834
0.0245168855029944
0.023429466607157
0.0225898190423312
0.0232077506007835
0.0429502044380748
0.0416207806321146
0.0231457440893313
0.0231049398422357
0.0416028168358117
0.038486528272048
0.0223452747947188
0.0221420648766984
0.0374668263643141
0.0410529828106393
0.0222169099128281
0.0206196722992339
0.0406309043993598
0.0440464710200056
0.0190508839807065
0.0171453746269823
0.0397794733208586
0.0362379471835403
0.0168938650586014
0.0169993302594505
0.0335397198925318
0.0336788882522621
0.0180168093385218
0.0180357160285689
0.0372596384734992
0.0345700234876142
0.0184036739394688
0.0185539427939514
0.0378975419107323
0.0416543224839973
0.0186957756942746
0.0187518428912208
0.0375438774373208
0.0419189111063813
0.0214796212570253
0.0208024686689874
0.0373734324628475
0.0364860605981639
0.0198533885159239
0.0186904122048193
0.0329171359308075
0.0308737496215204
0.0182622982599542
0.0179738806953627
0.029657706928604
0.0304367914545349
0.0182421339475152
0.0182491943016737
0.0310687426313669
0.0362096919939978
0.0193905374068523
0.0214430142453154
0.0417364208143683
0.0360067652644229
0.0205179907345633
0.0192009192489443
0.0326714528800677
0.0298115185173135
0.0187609426698979
0.0182759998521291
0.031625123942695
0.0377634797022867
0.0173233200771439
0.0171509042167157
0.0343570807513167
0.0339523875406284
0.0171281422080225
0.0167566287152568
0.0302624754550783
0.0316038338102797
0.0170745544438709
0.0168294053102052
0.0292692721911246
0.0271217971291147
0.0166235064896532
0.0164673008784077
0.025190686922061
0.0261414293366664
0.0165626914084305
0.0167831244179153
0.024736525620441
0.0247251895832027
0.0168551131777666
0.0172442379536392
0.0260269726713513
0.0294239969847667
0.0179691057126819
0.0181247585954181
0.0294989419517614
0.0308357474255307
0.0182889350854024
0.0179766502681671
0.0297121975541213
0.0313125067484878
0.0180401224042268
0.0181614810685684
0.0179232275795731
0.0312424067726896
0.0300260522292698
0.0315065977782646
0.0332496053958639
0.0180499803929646
0.0182913076354814
0.0174712711351786
0.0171731365888092
0.0161608268194622
0.0163915596029948
0.0162676501833682
0.0160766566577054
0.0155739980089365
0.0156394185090803
0.0156685988221914
0.0156048099284701
0.015549421084642
0.0155967096123393
0.0154209479766699
0.0153894286948595
0.0153636772478141
0.015391742322572
0.0153321676713428
0.0153156935981165
0.0153153131819096
0.015329617032655
0.0153553192964562
0.0153372184797375
0.015313299223492
0.0153300601401423
0.0153390596622767
0.0153250929439108
0.015341442524922
0.0153533222875609
0.0153500027647403
0.0153380950834325
0.0153549175970404
0.0153661874129784
0.0153659729845942
0.015354103678178
0.0153708219471019
0.0153831743647972
0.0153731954309177
0.0153626132715741
0.0153602206463989
0.0153710919288498
0.0153659334349514
0.0153550891843589
0.0153695607192876
0.0153808955704384
0.0153789999851622
0.0153672687390248
0.0153685895149901
0.0153819218424139
0.0153821142066739
0.0153681397397157
0.0153814273142923
0.0153957906892641
0.0153957036240629
0.0153811096878652
0.015380404162579
0.0153951504866848
0.0154401732898494
0.0154179318233608
0.0154339384559782
0.0154587665936897
0.0155285394896916
0.0154906628373891
0.0155142289079423
0.0155559086075682
0.01567512419604
0.0155991332996564
0.0156344433997104
0.0157216323827584
0.0157381906854013
0.0156504716623854
0.0157188483652456
0.0157947108467158
0.0158129618659147
0.0157354073419136
0.0157520106092894
0.0158312003842009
0.0158494218922067
0.015768672241186
0.0158474924290411
0.0158946282852756
0.0159150250801182
0.0158667549030827
0.0158856923645165
0.0159350555817312
0.0159556373138021
0.0159052179252907
0.0166446368423204
0.0165938057236656
0.0165761637347972
0.0166350187508119
0.016707105765134
0.0166443572720894
0.0166241138678974
0.0166948021850473
0.0169404898705764
0.0169951498515861
0.0170521766038
0.0169939139932831
0.0177393490518122
0.0178721458739545
0.0179805559773478
0.0178417629382803
0.0179374397087113
0.0180861375973561
0.0193154523601568