/*--------------------------------*- C++ -*----------------------------------*\
| =========                 |                                                 |
| \\      /  F ield         | OpenFOAM: The Open Source CFD Toolbox           |
|  \\    /   O peration     | Version:  2312                                  |
|   \\  /    A nd           | Website:  www.openfoam.com                      |
|    \\/     M anipulation  |                                                 |
\*---------------------------------------------------------------------------*/
FoamFile
{
    version     2.0;
    format      ascii;
    arch        "LSB;label=32;scalar=64";
    class       volScalarField;
    location    "1700";
    object      omega;
}
// * * * * * * * * * * * * * * * * * * * * * * * * * * * * * * * * * * * * * //

dimensions      [0 0 -1 0 0 0 0];

internalField   nonuniform List<scalar> 
207032
(
3.36590138425847
8.27048844758687
28.5219876825727
25.806530524675
7.03426503378882
6.83453862226332
25.4349474933663
24.1323321133821
26.6476628310356
4.51399359616886
5.11759099749106
2.58167477878185
2.17016874465839
2.29018095723161
2.69033815819989
5.54692605809164
25.4553310440113
28.3486712315189
4.6868532453047
4.87099190132948
30.1645696298534
27.1631814339119
6.09199769419471
2.90674373484847
2.41254310695893
2.59131522942379
3.15758002091741
6.82457012493179
29.1525804977738
31.9069812879612
5.38588647871757
8.56085790456875
37.0412994195948
34.5727585160015
9.77683353000626
10.0641797996413
35.8781274040059
31.6733008559322
8.76529477252972
9.62919104752571
35.4636984124015
34.2073600186548
10.0514990659342
9.64853159392599
30.4639473421643
25.198175504417
8.08170224081218
5.33443190983404
19.269348648919
15.3436574571043
2.89278076043762
1.51860141108707
13.738640611179
14.0712767884057
14.3850306863271
1.07608684136635
1.09084269763537
1.02279603822171
1.00357540850599
1.0022461962421
1.00113800119451
1.00461892143421
1.01643595889803
1.030829176914
1.01220754148012
1.73825820847158
17.5347411033305
15.3108499572357
1.67928259066005
1.06975286879385
1.04183402510888
16.6687280048986
14.8780121509783
15.0809171332461
16.5571683398183
1.03051696827754
1.03791002193963
2.44196177483771
16.6743529979643
19.3501259090828
2.38537594250189
1.16065916181193
1.20588844814858
1.21192446487632
1.16346257237341
2.93308781188711
3.54362787963128
3.54383570676881
2.94129276780603
2.09335730174878
2.34752986271037
1.21883314371114
1.16797634215751
1.06018437246813
1.08353898617347
1.31752015086629
1.18730058087257
1.27979491909938
1.39997745212157
1.44403885812115
1.37050870097495
1.48148011728284
1.5802615797132
1.91361222988959
1.63360873772419
3.17527357607874
4.02851751808026
5.44007179904791
4.81547683032142
11.0836177099059
47.6654192536296
45.6289420619919
12.0507988257478
12.6602339271548
45.3007213040013
40.9945464090531
10.9378415835125
12.0876572885525
43.6688876272395
50.3854636785951
13.0340115248163
13.6824792714753
50.6532392787091
56.756319254459
14.6415887558719
14.6875456928922
62.2499943905719
82.6834541616196
22.4019981616381
18.8693940505009
70.3244836744541
58.365312853376
14.8727164220972
13.8039855672253
52.6305835394167
43.3353295302035
11.5378813570479
10.4217909373237
39.1427005325685
36.6858485110248
10.1163105241615
8.09203617802783
30.7338819376503
28.8062554555687
7.8720059410716
7.32122757145631
26.6742944398501
22.8752359599112
5.95889094995998
7.55186148784789
24.9937209031019
18.2468021399401
4.85810544510374
3.35674694775394
14.940893093184
13.0727949715791
1.96761581443728
1.03819493632325
1.01054866976677
13.8826513714781
13.1540360305202
11.9403488900155
12.0348993797557
1.00269365876215
1.00926971401942
1.0031892769595
1.00106485682374
1.00255026446577
1.00907614861387
1.01100349301441
1.32777805454637
1.40775321747606
2.08351987111954
12.6802549661729
12.5438236277429
1.75959673039
1.0057581792597
1.00167187079628
11.8498111828427
11.8081077755776
13.207906531682
13.9064488139484
1.00444286311903
1.01019560854869
1.00066042588002
1.00040856905744
1.00011527439817
1.00023826853437
1.00081527135906
1.00027101772261
1.00054101757851
1.0030323743173
1.00117739749417
1.00027385504326
1.00023509434405
1.00037399849804
1.00000206510434
0.999984752485016
0.999951031861366
1.00007078984711
1.00031082356434
0.99997872640236
1.00053551192861
1.00276699453373
1.0411347822072
1.01985212931409
1.00251644345613
1.00524552898596
1.02128043253388
1.01454253169156
1.025949443523
1.03549459127588
1.05548397847073
1.04606238651918
1.10934787604033
1.14441747186954
1.18458963123412
1.14812889055656
1.21219530287674
1.25339266135562
1.26525447247958
1.2225483406258
1.37259206102232
1.45932371081457
1.47984131867212
1.39048205466898
1.85779698287867
2.23092417031073
2.3167012384055
2.03555709386595
4.89589660706771
5.45489638156358
5.41753197591827
4.88542407821853
13.7995527283632
13.4320514104772
14.0465974878602
15.5641316980091
14.5327589141355
13.1707693893373
18.8549497107807
79.4369803508118
96.1661304124284
22.1066287699351
22.7089257140766
99.0587263009837
83.4187695465241
19.6352395172941
15.1438711776344
68.1668815033691
65.3035801317421
14.7192265407421
6.54609634917966
4.01925513296017
3.279583634516
3.75035289533075
3.58330585047922
5.08934628224546
5.05189821947481
6.737481224152
32.6431744127069
32.18004629202
6.70303072952065
6.66365144078947
32.3678631770544
33.0280853401861
6.82288737390999
6.77930916197936
32.3429520775408
31.9360693343698
6.69472741631436
7.25059470580448
26.4657029002216
19.2185729218404
4.84097652591471
3.30582883013592
15.2447386009731
14.8132096517517
2.54368498028253
3.52960794201151
15.7617798595353
13.4309523488588
2.17775994192028
2.0205643447699
13.7560674338439
13.9444157474196
14.9598405192941
1.00388381280759
1.01157304535117
1.00083383468962
1.0002578262361
1.00009224312908
1.00021621860486
1.00017950950734
1.00009228193186
1.00009060611625
1.00022623968492
1.00034604608978
1.00008037576093
1.00000738341156
1.00030872100516
1.00009498834904
1.00003134173438
0.999941999524243
0.999941452984982
0.999937267060975
0.999918623877663
1.00008683645356
1.00040131172904
1.0036035029639
1.00134006574057
1.00060371909427
1.00095256403521
1.00865029268075
1.00494507315424
1.01971607570949
1.0287372042603
1.03845185320865
1.02898656315865
1.04790325614202
1.05466112875631
1.04677053405978
1.04091862083921
1.06536336899889
1.07184350803003
1.08223540202899
1.07153534746482
1.10406904463618
1.1161764391672
1.13755700813077
1.12282130421383
1.2287156393054
1.27036367359299
1.29881459457215
1.25692429917227
1.28372383003933
1.32638514911029
1.35768278336658
1.31471860446413
1.52312541491777
1.63812024569628
1.66362307317553
1.55267117004853
1.88862549019684
2.20636865078933
2.20104587188036
1.92119065089036
2.11902316797288
2.34562976321685
5.47666148728601
4.99124952563664
4.96008091357887
5.43902508628686
5.89360639287336
5.56506271623282
14.9407136820458
13.3719018265216
15.3075596748589
17.2740502977787
28.6670800089661
22.3269953167192
93.6207278978853
113.255173297344
137.089305006658
105.479074092148
22.209310895636
31.3000225054376
18.0813788743388
18.4199194971271
18.4332225337591
18.1369449490684
30.7286199957436
22.6659276690881
111.622778989775
143.455264502463
121.124227613702
27.6991476494697
22.0321553350136
106.352702353037
96.049482742309
21.6243986591027
22.003094196761
97.0521479378897
94.0314044527668
20.5575509216097
20.6693213277559
91.2604377219983
87.0490241017884
20.657082842547
17.5933845441286
84.4957922459853
77.1019993314582
16.5275338759093
18.2651483479981
65.3916913373731
54.6500913390901
16.6771358147258
11.1557702279443
39.7624745212678
34.9479889486145
9.31584313418339
8.3517028766369
32.3668203902493
30.2548893974508
8.26462965632062
8.25392255809736
29.1212673525587
27.4230428355903
8.13453801924425
8.13003720560005
31.4657366445561
40.5447987606366
8.69518097273816
8.3695364880117
37.4932054920444
40.9016477358043
8.34617272445728
6.8318729823941
36.6658913450576
36.0411057222906
6.78337118743066
6.77698665979624
35.8800236988187
36.4695026433071
6.81178872830795
6.89218726350791
37.5486844284514
34.3163125504818
7.62767548650747
9.92801246572975
33.4945918094642
28.0936369150895
6.47327313512212
6.34152732987471
27.2414279980819
23.3247225571205
6.29358260361685
4.77233070007645
18.8791681469555
17.6166088369789
3.7283906367813
3.22605334136625
15.6485528279237
13.4120550760964
1.77132904325482
1.4144044903687
12.5006156887559
12.8236213684453
13.6192668797916
1.00347111346614
1.00924333410512
1.00797645285449
1.00297324753581
13.6044794258106
12.8124966729489
12.497293432246
1.42103891039242
2.02120223957974
13.771572982277
13.9329125365606
14.9140124155512
1.00339047961095
1.01193060706331
1.0012527099155
1.00031762809774
1.00022733589314
1.00053616099708
1.00029918451376
1.00010949831473
1.00008586070922
1.0003370821239
1.00060362002404
1.0000944381434
1.00006972584724
1.00212433571238
1.01789911063863
1.0017714764103
1.00075011326874
1.00018477854319
1.00429232542809
1.01464560715606
1.03656642576691
1.01300984288425
1.29171346132385
1.37531489147437
1.0745044895178
1.04165416773891
1.09481389606281
1.13573081447979
1.16532302786716
1.12100526511165
1.16236054516854
1.20815438891224
1.07016574525831
1.05899302273579
1.08878304930983
1.10058953887624
1.08158988090116
1.07379527283765
1.10683651257653
1.11640455442582
1.10621770329519
1.09851254655546
1.11584123806696
1.12634946484302
1.13682987592593
1.12259399702547
1.1477263500881
1.16249421771328
1.16255724134794
1.14763410541258
1.17562090323066
1.19155941038872
1.22618177515734
1.20897127925194
1.24715671126634
1.26760912552906
1.39290260421663
1.34967099856342
1.3833141504322
1.43191235726595
1.68842924301823
1.58392977640314
1.61920273210737
1.71855191260157
2.20496789462144
1.95845681358714
2.27171258531203
2.39618519718407
5.53544936311865
5.13420489478958
5.81616099947554
5.92879866751217
8.64764885703761
8.52599724501631
8.59664309904915
8.63313313469346
16.4804945322778
16.2410046600114
15.7135253151188
15.2248746659386
21.5686583513956
98.3091868569796
110.437113613324
26.4285984264638
26.1757394813317
112.899451728273
98.3606902525409
21.42223800792
20.4141210866839
93.2662302434169
92.1433218860376
20.7240293668838
20.4136320055786
94.7365165664572
94.1488440463163
20.6699254734228
17.4704368894655
73.9836048423946
71.8127053634958
17.3343829264576
17.1213662145525
58.7254158169443
50.1915079837514
15.0253808083606
14.3027040354988
44.1339373830028
34.9119519194891
10.2540539340304
8.48504620755907
31.5333179701682
33.8495937999968
8.25314064485566
8.18289291104002
33.0287817541088
32.393835149825
8.15742811662557
8.67112659852703
41.277811076775
40.9341981033171
8.33366948441266
8.34420830907754
41.0484247999947
41.9802574938862
8.38697498852121
8.46359733080276
43.5358996544725
45.4929434962055
8.68419686651944
8.10052960094624
40.4503106413707
40.4158362932484
9.79287208607706
11.4739127397286
47.7745381772383
50.5826330021299
11.5682155274714
10.6770293084527
39.6696021145252
29.8995365695499
7.2060539436787
6.11517568583892
24.610090366133
21.9957175533833
4.59406054589995
4.46614205688204
20.6589985717009
19.1420875963849
4.14995304861103
2.52962809833605
15.5314355123781
14.3688357864437
2.07559108335858
2.28244761496617
14.52195446266
13.4059988217244
1.76203521764378
3.21133184641549
15.665717622915
16.2725383838091
4.00748131258738
2.76517990193757
15.2036084945135
15.2732527184096
3.30452235412359
2.0751781959907
12.7257498018596
11.9335937555446
11.9846806203913
1.00186609615076
1.0078107208184
1.00207927100641
1.00041485045208
1.00145612982545
1.00839405599488
1.03932316789143
13.1930633191381
13.8435919481345
1.01381853728753
1.1044737880954
14.340653856496
14.1245115975388
1.11384807899952
2.40040906831465
14.5973920647573
16.0448213326739
2.3321246027218
1.80921099806411
17.6605104883239
20.4609215796082
18.9785970233515
3.72596100580036
3.30442051998088
5.48068083988667
5.06280353282156
23.311773240199
26.3736534700871
29.4749669841314
25.7990234118775
5.09878172482326
5.16671866241736
3.29685512182601
3.76701176556881
3.75921534366743
3.28898334908151
1.29615391722318
1.38422343215702
1.39485496231883
1.30264526797735
2.292357547906
2.48260048542664
2.73182839703954
2.39343228616747
2.63076389124787
2.96343368358349
1.53099561456571
1.43089624699944
1.61583418227571
1.66357010559114
1.25973948447546
1.21723315999151
1.29718153687578
1.32817162101889
1.13516396508518
1.12197113500373
1.20874217034092
1.21705686562215
1.17169906873366
1.16038919642987
1.11525860442988
1.12638298054939
1.16108503816299
1.15106554571329
1.14371830559141
1.15451483196682
1.18928519876642
1.17791862772583
1.17834478875116
1.19392773655613
1.2322762039835
1.21569768967662
1.25829654546758
1.27823014082866
1.33355440077634
1.30259470457656
1.28528940618498
1.31670799885403
1.3710826093351
1.33047679877997
1.42114234177385
1.47608009053305
1.49319406582029
1.44044867769177
1.47060457054316
1.52302940622276
1.74208454272453
1.65245689748166
1.67073798263277
1.75587076218784
2.18765901866022
1.98288622041855
2.02747188532157
2.23422263510944
2.41733199942554
2.29213492686196
2.36121884513761
2.42191278827697
2.42219949749589
2.65183849908894
2.28566336771307
2.3975602322099
2.39669542202224
2.27089518177741
1.98108969565185
2.20644234088163
2.1838547399721
1.96252472982165
1.63908770521793
1.72998151731159
1.72339922113819
1.632231449502
1.74094455448397
1.7836120223682
1.81060217818729
1.81093469747823
1.81644744705083
1.74532867834224
1.7404336230811
1.73753914506438
1.73221322615963
1.80444810296899
1.8151035865025
2.10040907717387
2.05944980828399
1.92764473035648
1.8366976853997
1.84891021086199
1.79522984918369
1.72297117384131
4.21305791425129
19.6867017122688
17.5848040409289
2.87620934785324
2.65316454031497
16.6705023634761
17.7738829869197
3.16570885209854
3.10175343991421
16.2364826229921
20.8885471907635
5.54741688536988
4.08523922859383
17.9327488710453
20.240474647444
5.34923931502026
3.98547901061936
19.4065922605437
19.1073603472573
4.72768802899211
4.91646892786839
18.519694208582
20.3521134079767
5.42982312284808
8.31385909945665
26.0332451650926
27.3471830839508
8.93468540724036
7.58222068409084
27.5643795385495
29.8357090232069
8.18661541339253
6.67997490835487
5.91715474879606
29.3780423940077
29.687197007646
26.8566097634352
5.42635146408957
5.19958506345539
27.8432008468653
35.6876352283865
35.1727803909768
7.88683140850107
8.58841071251059
3.67405104009465
3.1412893648915
4.40843951761892
5.05635171294753
1.9876434372162
1.93330076925731
1.97217807415662
2.02643544349246
1.37623304362016
1.34256907414724
1.32123980611418
1.3551359838384
1.36010852322853
1.3252788909818
1.37378314698269
1.41092600355913
1.26263842456017
1.24359492877592
1.24689525043239
1.26066795876519
1.21118705286836
1.19533116863783
1.19148913090532
1.2086891323403
1.20053707807461
1.18878669526485
1.23579198273661
1.24850285485651
1.23213610918111
1.21951835989606
1.26819963281438
1.28414522682194
1.34648640289509
1.31788649209168
1.37536720880306
1.41531066317253
1.39307295041769
1.35274717928248
1.37608509770592
1.41466715254533
1.44781095731439
1.41126767663704
1.39310522565421
1.42680693638494
1.42072453212631
1.38466060306992
1.46817100865997
1.5183067406439
1.54873329976158
1.49795306451311
1.50409430295403
1.55550157128247
1.76541447067541
1.67776757860913
1.70477429664892
1.78495320388837
2.19860503977121
2.00908245060541
2.07289687895752
2.26675798044549
2.45109848811752
2.32466795846302
2.54801586650766
2.54496181799899
3.92982570568958
4.1337868592677
4.17632348896251
3.95521859292689
5.89810853831921
5.82067887436607
5.84966744849388
5.89863262002318
8.56168771800014
8.58125612167084
8.63440009917625
8.57565812070064
14.8430075454818
15.5037282034125
15.4350723718723
14.7639025513658
21.507358305142
101.51718823673
117.407109340679
26.1515101562041
26.2456719878814
123.44679088016
106.27663779809
21.6984391821907
20.3973619921931
102.074401359027
96.9001578053953
20.3429581663869
20.6813037817606
104.010618606038
104.406643076998
20.7886831114828
20.728304265959
98.7697503660894
79.8753930431071
19.7599311938526
20.6017323700428
71.3368963175504
63.245422751472
17.3026333312816
10.5948759620811
7.54902008682478
6.20207750640345
5.76237642357309
13.1439693935433
43.3334549458293
36.2008838795339
9.47667384235121
8.85587202910651
44.5508957777949
42.8711652319031
8.66819333739093
8.65747249807778
41.7639563137893
7.60602060653372
5.38975078150325
5.57538776228146
2.52655372380853
2.64673886550474
4.1610384515953
5.10717531543398
9.63095083108657
40.3054635538075
42.444305619531
11.0255385880223
10.2807962908035
35.4939915334808
25.337551458997
6.0433766723194
5.04931149930463
23.1096274444815
25.9288634889583
6.62041092752915
4.80178337172046
20.8876244478456
18.6575313957538
3.43465672683775
6.36509021146354
26.2695968022233
24.7672288228552
6.00454845311434
9.07330153979446
32.7477971004443
42.4668124161267
9.55640429572026
9.59191292533849
38.501434408385
33.4325403880439
6.75756743816564
6.60981328669683
31.127421491469
26.0396445580364
7.07459613683175
7.55714738676092
25.4633240625744
23.7326818585942
6.13891061365898
7.9227038547483
28.61021100786
32.216989242386
10.6041512879311
11.0714764252404
35.1013661183201
35.4543507236293
10.3168793517465
11.8067560151804
44.9235336124591
43.262799372007
44.1088437470151
9.2679829533365
10.1105178279136
12.4855941581555
12.5572036958554
56.6007204689527
51.0615367092501
54.212639324029
13.593135945343
14.7626617287183
60.5150032265212
60.7839815495891
74.1752872464129
17.5489235733899
15.8474357349865
12.7076387746386
12.5910666020462
11.6144720486966
12.224901860344
5.09574006135914
4.48877552130338
4.49841510333074
5.08758842110614
2.16578912745958
2.06948983652753
2.12885654913815
2.22015299737126
2.07399167538771
2.02667851733006
1.38097586511962
1.41385113518466
1.46383696239666
1.43086636216568
1.4936344004754
1.52907039381758
1.47237278510226
1.43481410321976
1.30005144411842
1.32050545643422
1.31710518304029
1.30175126361821
1.24663997829685
1.26409272021257
1.25827481408357
1.23940831590798
1.29529527674497
1.31868871951998
1.30618055874795
1.28992649552706
1.34640854026509
1.37539761400904
1.45322289448571
1.41114312547856
1.44388038739251
1.4833382913486
1.52933334510448
1.49137948170775
1.45670907974108
1.48818781174104
1.48390330397396
1.44974569570569
1.42557998894499
1.46027940305145
1.50253934954576
1.46801575434081
1.44893977215319
1.48524887021492
1.46373568977276
1.42938814397235
1.41837604583071
1.45311621544343
1.48558126455552
1.44982871702954
1.52519475102752
1.57745058645921
1.58766460790644
1.53485282031949
1.70027401690813
1.78844753370312
1.81544586960141
1.73524550558928
2.02946949093067
2.21269868722744
2.30207303996939
2.11117868299164
2.35905350111701
2.48986443952871
2.57841064077795
2.59338186746545
2.64037988535624
2.61641666272399
4.52443872203457
4.73613087982505
4.69144204810411
4.45892604973734
4.75024250821983
4.99823456559902
4.92111445544399
4.64474553144388
5.93511620766605
5.90064854548708
5.96793582882836
6.00412070379466
8.69051180878566
8.74241436847342
8.88686787596199
8.85417976118682
14.7769765442649
15.4453447849408
15.5125647727618
14.8391436124553
21.9513462288757
111.90178179326
130.426808366564
26.4102367013093
26.6429425853809
22.2677875336935
118.358501719639
138.545978818717
147.779069222918
26.9263639381782
22.6500150836517
125.421393717056
121.480412227164
20.8943831647618
20.6647637696227
114.640205043295
108.122246226385
20.5017836219147
21.9721949698517
118.499289273216
117.872376325596
20.9459137469908
20.8428570091227
110.837094606772
107.5906349259
26.2223505633857
25.1117361667473
94.1842100668616
92.1567012511789
26.5655610218905
22.3475720816743
71.4837385851737
65.9412405361106
20.6963335542094
17.5075805990859
58.3822857160061
56.4693659667409
13.4957656131889
11.4890130173717
48.9817968072078
7.73036334869505
5.35744643537859
5.74420541406567
3.19087594719898
3.06394546629272
3.28833847149844
2.03406359198281
2.66766603959495
3.62113708520808
6.39539677886271
24.7251045227987
26.7266826932226
7.49235870724661
7.96118543318862
31.811130435426
41.2819962583529
11.6930343190028
9.72431246173801
36.9607454999634
33.2206650904148
9.78084540449398
9.04662852334986
30.4643433999629
36.0811683294414
9.10874102515587
9.5637530193398
46.7341436834158
44.5084179965973
9.34190849205775
9.37828820694507
43.0992161496946
42.470177097497
9.28622083984873
9.20798786554407
42.6347088430538
36.1200731445611
6.78647296100291
8.26693640557077
40.1718142343018
40.1309283358482
8.23093917733768
8.23727989095032
36.7837815134427
40.0310555272747
8.51323526310266
8.22894172583307
31.2174652818705
29.0415961290294
8.44090045966757
9.49135770371341
33.3469655927594
41.4514394492754
13.9268426183798
14.6923085524265
46.016144791921
54.4725843007125
13.8046710807271
15.9728274921408
60.4028788745418
66.5099525033468
16.2584484030112
16.1615519410209
67.7223463078268
61.7108713454856
14.6416289726393
15.6249072853173
16.9692139609193
81.772134800161
63.9353839594283
61.7625164886004
78.5279842837976
16.7196961881642
15.5059783091806
11.0967649404418
10.9865670020471
4.7679422137114
5.35907882760513
5.1465217193351
4.64289142638666
2.19970797612253
2.28857981847497
2.12270269792293
2.07864427496859
2.13969627981291
2.1832339653875
2.25859793926852
2.21240209492043
1.57043367897331
1.61099779382076
1.54708446461986
1.50579625883213
1.36874047329822
1.39438357821978
1.38853822945722
1.36822965945011
1.30799930163151
1.32987865003484
1.41346426542525
1.3777714814353
1.35677062766237
1.3929780223024
1.48630120933585
1.43453813766497
1.47824499135501
1.52877834963353
1.59697016655747
1.55459481232365
1.51558687613367
1.54506106867925
1.61865570092642
1.58765782362999
1.5530812167477
1.59604313996802
1.53734415032224
1.50644888968612
1.49483297432964
1.53147582658043
1.58124670584902
1.54154370820319
1.50838547930791
1.54470853578839
1.52263359922846
1.48442501612694
1.46226460671952
1.49887626056256
1.5317854690201
1.49252118206765
1.47916413952563
1.51718224557654
1.60409800673566
1.5503654616963
1.56345243458439
1.61955021008528
1.81073365309468
1.72109682389536
1.76345162741795
1.84593455009813
2.22831119776511
2.04801518558539
2.14716762980447
2.33854141547887
2.53298522886545
2.39534433303126
2.43276831024393
2.57627306923806
2.6539985698742
2.68240790551672
2.72768005017622
2.69389516487077
2.7334809199398
2.77050565050763
2.81846189497063
2.77616090179099
4.87067006794359
5.15758539569194
5.07655732787855
4.76319289199521
4.97712311711088
5.28886001396536
5.20764321205128
4.87189737967969
6.09728356888479
6.03925706715728
6.10067460589903
6.20492058199541
9.0484005918857
9.06012287703113
9.2536897545637
9.27577508140858
14.9480061506182
15.6329262087395
15.8030568608159
15.1087131016172
15.320718649216
16.0173259644642
27.2631933908318
158.293296580185
133.132275180862
23.0959150186815
21.1684292760536
128.601381464746
145.064946351212
22.5153388254215
21.6272996357985
141.36355884811
132.827220480604
21.2885951562724
21.0922154151774
125.029291440134
120.593741550901
25.2159015367303
25.6715010189641
113.837884863969
138.615612137772
30.7131517850429
31.7336967185261
130.224973280542
132.076754843512
32.1448299860649
32.436500882885
119.001813682158
133.122182420498
31.5492023097688
28.4201638133889
25.0347634845657
27.032351856656
109.663593145775
104.818615922707
26.9102292434954
26.3644077595013
97.4936102723058
94.2037343873853
24.8817260191605
24.4658394862533
97.2586357220126
101.721399582422
24.6256612615085
17.9283259629636
71.4827672567006
62.3284285989313
13.8257886173894
9.47019351522746
50.5701615359661
47.8785682671237
9.02727732735948
8.35400417038311
43.4617189333791
51.6990830804584
10.7749851360526
10.7213128606081
52.9116601410755
50.7311514406628
11.4956797447068
11.7752231812875
52.6264155673099
55.1830815314966
11.941269500423
11.0707856262521
47.369560078276
56.0683818125851
16.3673779978919
13.9273258341898
48.2728029814353
39.0786328456187
11.6240413051246
8.50470594889719
32.0227524327658
29.0202174653256
7.81917079954627
7.02677004876209
27.678137382152
29.2243546054902
7.8502379393093
8.19671422061959
34.2609019956611
46.4272009801085
11.9466950409937
18.1300091924774
66.3075922851136
54.280024304633
15.866016001287
12.7244215863334
47.1385072617404
41.2205824249859
11.7234687854169
11.5150386770015
44.1653088559377
51.6597732559083
10.1413793485805
9.79187410913826
49.0305354450893
48.9216202052567
9.9984622293275
8.02484741819281
39.8172837224495
44.5500839849904
9.77040519070542
9.12168042531359
42.6497849014549
41.0676897896856
8.66217744925805
8.39219237393041
40.1714184599598
40.8966473151423
8.68043793951151
8.48166567515457
32.7583268556021
32.0188025063541
8.73263403515943
9.99022330822826
38.1423931135414
52.3278249919633
14.0795017089136
15.4378863553351
66.9666994010577
69.093040855571
16.2387908972905
14.4747521964792
61.2391214401796
61.6825396713269
14.4951142969477
15.5935734321159
16.7214436828046
77.8327287257815
61.1123340738506
61.6455919810755
78.8297271791691
17.0189387211202
15.9674978200429
11.4426651849581
11.1661638749699
5.1805989170752
5.78177650345661
5.25150490850083
4.79336398371626
2.39721515889681
2.48601326252456
2.62860005950248
2.51920401736733
2.29360894135244
2.36044763455198
1.71756190821049
1.65616810784151
1.58445440425773
1.64307552064372
1.4915328495497
1.44821549625527
1.4460640897573
1.48257497449791
1.61761769102704
1.55651354747333
1.47414675525914
1.52934117362487
1.57638520322474
1.53782298685789
1.64529719467944
1.66862434105946
1.59822165596693
1.57654325856843
1.69409334114629
1.71738253232934
1.70992798269599
1.65567923214635
1.79596341966738
1.85945627577631
1.71750489204646
1.68416605188921
1.62873161593415
1.67531911013226
1.59470432024452
1.56296302198039
1.63352633324262
1.66632516978856
1.63703289131721
1.59419675769463
1.54970970634473
1.58809460129313
1.56001404033243
1.51860618153389
1.55370213044538
1.59934151494825
1.56371784434856
1.52200184995042
1.50684528796216
1.54732756797917
1.62871975190695
1.57383059361348
1.59092772831941
1.65045515135131
1.83269488517702
1.74152925918959
1.79096152449182
1.87641632523246
2.24524690906767
2.06712829013853
2.18340418880788
2.3751133582775
2.41088644980715
2.21902828669933
2.47159914439869
2.62201624056709
2.66667494480785
2.51044528798481
2.54994631939161
2.7104642167198
2.75119444806261
2.58813480132606
2.86492468426221
2.8177888711335
2.86185965433777
2.91629877885511
2.96523611510428
2.90347657636355
2.94648321411777
3.01780011442752
5.40331178397554
5.07844009006936
4.97044749372101
5.32001629127834
5.49809779428853
5.1694681091048
5.05183843178658
5.41059549323841
6.15547757605788
6.32050077842836
6.43628478420872
6.20283018715225
9.45738046780303
9.53086919178851
9.80320350613381
9.6573648716678
9.83342853607851
10.0746208258444
15.5774665331254
16.2670771642291
27.6659140572478
170.254509932526
141.649749245455
23.5908435358099
21.4905779287903
136.149644828796
155.23476527524
22.788969513557
22.1621465323299
150.569205201278
149.666390013733
26.8621502770568
25.4933192858382
137.595248875312
128.422491681219
25.1479835079927
30.9188437364787
157.117627809296
143.136746767376
31.6821205368421
31.5739007970047
134.241549468781
102.889074354559
27.2779262207862
27.0598160976018
102.869193022949
96.1103755753
26.0476583021487
26.2910311456609
104.334003783062
101.965565957802
24.9626312994427
24.5958946493533
107.505182830834
103.615052535134
24.4489251880835
22.2284314115736
99.305697359425
99.2628215084878
22.332739907421
18.6070273607219
74.5471887968597
66.3277797965798
14.5097475530448
10.0607300200198
53.2629787281537
47.1166650344579
9.07695599361494
8.65874294186944
44.9571047788058
6.22498141448617
9.53367342119807
9.50694788753916
11.1297603299011
55.3026572262735
58.8158949973283
12.1196236554159
17.4163954282255
68.3299377640828
63.7791250394934
15.9397468052353
25.3756037232303
88.3380594151646
78.1497589290946
23.4774106425721
18.0529397432045
58.5768741829218
45.8357345239853
14.38594999796
10.0555088618388
35.4578123549644
30.5210052174681
7.91712680745971
7.25468593482089
29.1250351758069
30.4237957513826
7.97473510402407
8.4114614059518
35.6318596672408
48.7953565675702
12.0534032098069
18.7357176749197
71.8884043618089
91.4243410017903
24.4674335356687
25.8251931822652
119.809214791017
114.07685393206
25.2034917665996
25.4790362732598
110.634060219919
101.298814532187
25.059949375819
22.8845967915754
81.8876364833085
59.6725379478786
14.412813983519
15.2728073252718
60.5985266561838
52.9327220924511
13.5822128723207
15.3316087150885
57.259488649657
48.3281656500281
11.4635837301375
11.8075892505734
48.8835462266317
38.5783215543413
13.4628915400811
14.537487112773
37.3003794569535
44.435576968975
17.2088705323287
22.0952519078272
64.6764958445717
84.2380862621602
22.1346634056028
24.834878973952
91.1237776137482
83.3945742565412
24.365078809196
29.7043165264757
33.6008716589311
133.299823034577
92.1610265572153
88.7916233099803
126.646019579838
29.9708094985177
26.9045818490853
18.0140064677406
17.9079183906602
13.5927892818871
13.137015748657
8.7211493021548
8.47861364111267
7.83121034023524
8.31086412974595
6.98722622012864
6.56016308699748
5.33651632870205
5.67704707351123
3.92800164391607
3.79870906291956
3.66560892913992
3.77373146205557
3.54426310143953
3.44537980630169
3.2188897339542
3.30630957631594
3.08047452374145
2.9767803430665
3.04378673076597
3.12565524039473
3.2553828544664
3.14520278689246
3.22929422220954
3.3323977509323
3.4664985407845
3.31434791357708
3.34521895362734
3.46704885052894
3.53469537198688
3.36079697309943
3.27599873269636
3.40625830258054
3.11715516512119
2.99122383746542
2.82480821629108
2.94033911353148
2.51861801132873
2.46977883547217
2.26142781551516
2.35341204506112
2.04757088816715
2.00322459916523
1.85962326572877
1.91403072445237
1.76067987187592
1.72607928487196
1.65968906791775