/*--------------------------------*- C++ -*----------------------------------*\
| =========                 |                                                 |
| \\      /  F ield         | OpenFOAM: The Open Source CFD Toolbox           |
|  \\    /   O peration     | Version:  2312                                  |
|   \\  /    A nd           | Website:  www.openfoam.com                      |
|    \\/     M anipulation  |                                                 |
\*---------------------------------------------------------------------------*/
FoamFile
{
    version     2.0;
    format      ascii;
    arch        "LSB;label=32;scalar=64";
    class       volScalarField;
    location    "1700";
    object      p;
}
// * * * * * * * * * * * * * * * * * * * * * * * * * * * * * * * * * * * * * //

dimensions      [0 2 -2 0 0 0 0];

internalField   nonuniform List<scalar> 
207032
(
83523.5536933149
83537.178663042
83558.7876089588
83536.1831672832
83522.7240060193
83512.825523949
83500.873202679
83492.076873266
83496.0272428684
83507.4989633762
83507.5716168718
83503.8929485377
83504.1583806091
83512.4216238326
83511.9731840914
83520.209977887
83521.724963784
83520.7107938329
83521.0298529691
83531.2975740758
83539.6241630367
83544.0980818849
83531.2587824246
83522.792089166
83523.0236052112
83530.2138141834
83529.5383591725
83531.6723443688
83537.2685274337
83536.6318565897
83532.083306675
83532.9375871956
83534.4358479552
83533.1819358336
83531.7647109327
83529.9381449064
83536.400813387
83545.5354706974
83533.0124254921
83532.9826667726
83546.0728465555
83530.7727955065
83528.274156039
83532.9116650386
83547.8764419706
83489.9090670195
83502.4521541474
83488.6611809114
83465.74776287
83471.0241368481
83486.0277771967
83484.1867233686
83459.4039435728
83555.4761098274
83554.3196645743
83517.6213499385
83509.8613510631
83502.478095162
83502.4890160419
83503.0266452562
83502.4565075721
83501.5082277955
83503.0886220981
83497.1733848745
83496.9471802635
83491.52270391
83490.0503927118
83472.1314616156
83488.7096968042
83507.6352371124
83501.7812417621
83522.9746559097
83563.2539375343
83547.382505326
83526.6188949754
83509.9426435728
83513.8224750072
83488.6980396088
83478.5455167342
83484.476053452
83491.1697648057
83495.742506897
83494.5880785475
83495.3502401138
83496.9287908838
83497.0039717741
83496.6113214935
83497.9415587767
83497.7844898494
83499.6997470229
83499.9378000321
83498.2701006856
83498.7745996821
83501.8758874475
83502.0640879917
83508.821490821
83507.7943345781
83516.2232052594
83515.80939765
83524.4292037112
83525.4615983064
83533.4147178476
83532.6200381473
83540.5271818084
83541.0018036655
83535.5093929103
83534.9104675063
83541.1415825672
83541.646749156
83536.6380224
83535.8159854001
83533.5415203152
83536.5240358618
83535.3125108723
83533.1912505565
83523.2679726376
83532.6687910804
83533.0385730843
83537.0109629413
83552.6899729134
83536.1949377808
83537.1644942455
83547.0276769435
83544.3062359814
83539.4245536668
83539.2120804315
83541.3321914711
83538.5616478022
83538.2534834006
83537.2473850297
83536.6223644865
83535.8754088985
83535.6166020436
83532.0969183031
83530.8066817515
83529.445605062
83528.322223583
83526.9574304986
83528.2891173066
83528.9667975093
83526.7897501779
83524.2298603675
83531.3155423838
83515.1117612335
83519.3116243365
83518.2117077802
83507.9041437297
83548.6364672724
83512.8687944241
83505.8523985252
83501.8615405771
83498.9303385609
83496.8665145714
83490.5671946007
83488.5573176849
83477.3344089245
83487.3556770376
83499.4536585669
83506.9057218396
83524.40135925
83503.5508222398
83494.7210534574
83510.2405508713
83498.8074895357
83495.3983428507
83496.8033050965
83497.9383658931
83501.1032908431
83499.3112434687
83492.7830761113
83490.6009316497
83492.789317413
83492.3127325762
83492.7595904187
83491.204259094
83492.2109608542
83492.7454873885
83495.010013083
83502.9500180305
83490.1920767377
83488.6523535901
83498.2039065872
83492.6825795724
83490.482621653
83491.0274262653
83491.6619602319
83493.1433800018
83492.80867403
83495.1490355836
83495.3570344214
83497.498484542
83497.5862356403
83498.1606472701
83498.0851619469
83498.5056152951
83498.423680502
83496.0899339195
83496.2702932622
83496.4056820049
83496.2319354779
83496.3904790631
83496.5660188906
83496.6767989899
83496.5513694238
83496.5821544201
83496.9436741864
83498.1744478749
83497.9896759764
83503.1696547747
83503.0271143846
83511.0023252011
83511.739243581
83518.0663825037
83518.3072929749
83517.0437660789
83516.7289261681
83524.9190552774
83525.49288995
83535.1055804871
83534.5081682596
83541.5352480425
83541.8236694416
83549.6128742288
83549.0727087612
83554.0741112844
83554.651556694
83549.7279504356
83549.0079281056
83552.357786855
83553.5802095784
83549.4735709344
83548.4313477492
83543.1054562471
83542.9681599106
83541.1802256414
83541.7338958432
83541.3800839938
83540.9087895008
83543.7380878821
83543.6849557885
83538.6311958463
83535.2295687664
83538.6869573481
83539.727459587
83542.4921652968
83541.11155807
83538.2150941686
83541.3906741668
83538.7778422456
83538.6188714427
83530.7904327811
83537.1068787348
83542.0020549288
83538.8346800363
83530.766962005
83518.2144612185
83504.4659251471
83489.1316576393
83481.4544940936
83473.2360875952
83476.6025817112
83471.9287654626
83479.3979174484
83491.8108436629
83506.2105037327
83502.2035347144
83492.9951968173
83496.6299900035
83493.4892432478
83505.4372964363
83502.9209916547
83497.2478809236
83484.3422140398
83488.7358897874
83494.1368950258
83492.6776173312
83490.8839796243
83491.2903465801
83492.0436257559
83491.8415689136
83492.2584275404
83491.2696890418
83491.4882144812
83490.273767902
83490.7408850292
83483.9203601487
83491.5541011409
83489.3698858376
83487.6056418763
83489.6828089329
83490.1506382191
83489.0511180859
83489.0331727105
83491.0176928791
83491.0527128769
83493.1551187065
83493.2183090409
83495.2675013153
83495.0562329287
83493.066514649
83493.2211516445
83494.3614762857
83494.5758289001
83494.4070369773
83494.2142857489
83493.079189381
83493.1239172245
83492.8565916014
83492.7417016897
83491.3341938581
83491.625955271
83494.8578349412
83494.6429200949
83496.2843825781
83496.5135719104
83501.2148116639
83501.3719124712
83511.0064345811
83510.0777500956
83517.9630685937
83517.7319041212
83518.5427767077
83518.7809579382
83529.3018725628
83528.949998794
83527.4088643039
83527.7631899706
83539.2418543906
83538.7033112823
83548.5850293483
83549.2308583089
83546.0178113243
83545.3782736839
83553.3703664166
83553.7147498852
83561.1456934393
83560.9002315808
83568.8141427573
83568.9938780708
83562.4127553982
83561.8182844244
83567.2217611714
83567.6235415686
83560.351503373
83559.6825897086
83564.5052307025
83564.4124447855
83557.1411852302
83557.2443501496
83550.7999121163
83551.2513133258
83546.2256071698
83545.6707435013
83548.1840962057
83548.5380352294
83545.6810269786
83545.3470794282
83546.6106646887
83546.6639476194
83544.1805952905
83543.6488650112
83541.4791897973
83543.5062923589
83545.3187867853
83554.1057484765
83544.6394208281
83543.3010060178
83544.6562889205
83543.5001205922
83543.745046148
83544.8748886246
83540.2824825442
83538.0737146559
83529.2229352539
83537.635394365
83542.6438946081
83542.9660575514
83542.0367727825
83542.3448772559
83545.4743524662
83541.4846367422
83537.4540824302
83532.689473526
83535.1097217987
83536.3086310258
83533.2638648996
83531.229763429
83533.4332070439
83536.8763059426
83539.9012373568
83540.4265012532
83530.2647390323
83539.9574405026
83534.0409321049
83530.5921265307
83531.0506838063
83529.6784039389
83519.4471212778
83519.9934194642
83521.8562803793
83520.9746484995
83522.7964274337
83526.4992188798
83519.4587923342
83516.4931023666
83520.8154549043
83526.671978485
83514.0658310394
83516.9181337752
83515.7606119307
83521.4169219403
83523.6337302907
83514.8834289888
83514.7431916771
83529.5082378853
83515.0959662709
83509.2452802902
83504.3697117685
83513.2942986316
83502.9029158583
83496.8319472682
83485.3544400729
83482.7794430322
83480.1208061541
83479.7320354919
83467.1660738426
83463.1077470978
83442.5152087878
83455.9716222989
83438.3234130419
83432.2473360487
83468.2493077389
83468.3634566937
83480.7852405855
83475.4406168776
83492.9760371212
83489.6569968529
83491.1322151839
83492.1822338696
83488.7343940625
83488.289605153
83490.7748189558
83491.778523527
83488.9296322864
83488.763858632
83488.630427849
83488.3328966549
83484.2927216927
83488.1290006122
83487.3685178185
83486.8090599716
83484.9035981033
83485.2344884739
83484.841068812
83481.5275622528
83487.0898638537
83487.2397683041
83486.099643847
83486.7232073123
83477.1205060091
83482.2211153043
83483.0983917423
83482.2999665833
83485.190587518
83485.3914785351
83487.1092326764
83487.0519642084
83488.8700005504
83488.92180608
83491.0428362618
83491.0717492054
83488.5890624118
83488.9346411613
83491.7535657453
83491.5505900918
83492.9058270839
83493.2745096128
83494.2958575154
83493.5862636548
83492.8883113664
83494.2741653221
83488.8344740758
83489.0777336272
83488.2021808259
83486.5247875554
83491.4071984316
83491.983864079
83495.8555567721
83496.1162432442
83506.1322888791
83505.585273758
83511.6573177634
83511.310319971
83515.5669694905
83515.8030887277
83526.1400201557
83525.6274430283
83528.2486783165
83528.6785548335
83542.9366131334
83542.5217282702
83542.3489554187
83542.9245213439
83556.6675888441
83556.1566466976
83553.3613137954
83553.9653314413
83564.2700745639
83563.9162853624
83558.6855252377
83558.9928267898
83568.3105689462
83568.1104162111
83577.4190583217
83577.5075306543
83587.107590396
83587.1846657105
83576.5068512196
83576.5242331407
83584.1805118509
83584.4177133383
83573.8824906034
83573.5749582772
83579.4168193002
83579.754548504
83569.0524727143
83568.5553235048
83560.6636905639
83560.9895144867
83553.7208814668
83553.6674234606
83555.6949258202
83555.8024683392
83549.0454787719
83549.3768367427
83548.8536456961
83549.0748776106
83545.6639860904
83545.8023223619
83546.9385793574
83546.2621633538
83544.4566336736
83545.9116935716
83545.1817901661
83545.1921253212
83544.6359915851
83543.9253100262
83542.964971734
83543.3881556525
83540.9018264823
83541.4253605705
83546.354998313
83543.1065724997
83540.4115604699
83543.4097706657
83540.5328961213
83537.3767877348
83531.1729580206
83533.5327412186
83523.1430354959
83529.5374438081
83523.5023812042
83519.9376906117
83514.982416202
83514.5926642346
83502.2600949424
83502.9431062961
83509.6299362541
83508.7742900597
83512.1673312516
83512.850262601
83504.6249357584
83503.7462218979
83508.9590129769
83511.5004554517
83518.2285085095
83514.2424746586
83504.9901374342
83505.1148802859
83502.8513711258
83500.1080493706
83492.7977790051
83492.8302119172
83487.4536912066
83487.4451304659
83477.9838098688
83476.989458445
83466.7000091663
83466.5072249107
83454.6850183202
83457.1239716728
83450.1654616274
83447.0222586928
83429.0462164739
83425.2740795848
83429.1026810719
83420.5018786022
83407.3079201034
83408.2997868141
83384.5342523329
83385.2425656652
83428.4801965159
83428.1944875711
83458.3986696964
83459.518578089
83474.0964301391
83471.6817184703
83482.582920244
83483.1358787674
83479.973779097
83478.6655003682
83485.2975420424
83485.6763924744
83483.5063513706
83483.0218219911
83487.8341126038
83487.1857407166
83485.9830766311
83487.1463332239
83483.5887066628
83484.3063699748
83483.2324427109
83480.4475944139
83479.6388794009
83482.8850516741
83482.8271094703
83481.1257052014
83480.9647983288
83490.3962466399
83486.5985759443
83484.5587442454
83487.5267533121
83488.4999204599
83490.6930228639
83488.9699305992
83487.1190573519
83487.9208905699
83502.3762725429
83492.7967647442
83504.0504599805
83533.1633197636
83538.4980134356
83497.7133707119
83473.6869619426
83447.4597009753
83460.867572141
83478.2717105981
83482.0590760263
83478.6192693806
83475.3576824287
83468.6318717191
83479.5776145057
83482.8619495381
83484.7840469605
83480.9537015693
83463.8413524253
83476.821651652
83476.6647831336
83461.212060398
83485.8195952036
83486.7101268039
83488.2259334592
83487.0470118665
83485.7401920893
83487.6327985639
83488.5817127448
83485.9866520879
83489.9899314716
83490.9211587902
83490.4909085512
83490.2553988035
83494.0637530444
83494.3948936653
83500.9716360736
83500.0805158358
83506.9358661439
83507.4511217101
83515.9426185713
83514.964012392
83519.8341440036
83520.5902754038
83531.9845070397
83531.2260858026
83539.4469959195
83539.8259070852
83560.6122576352
83560.7219993798
83564.7411201083
83564.7176980351
83558.8375684006
83558.5138591517
83571.4714879451
83572.0351437573
83568.5252974739
83568.2213216763
83580.9122299701
83581.0176390097
83574.9928145762
83574.7809256535
83586.2133277148
83586.2225017463
83598.075595318
83598.4422099477
83611.047481211
83610.2652977746
83596.8282127973
83597.2198648882
83606.4688649155
83606.1941825334
83591.3642070277
83591.5562959493
83592.1589877031
83591.6597958834
83593.4822521144
83593.5673069506
83586.8511113703
83586.8883523282
83580.7005932355
83580.7662416254
83575.0492862424
83575.0399546578
83570.2126033482
83570.2983149382
83566.3773490771
83566.2881255691
83562.5909964726
83562.6617099911
83559.6183161832
83559.3332744719
83559.7271046544
83560.397016866
83566.706267348
83566.1680973887
83569.0265916003
83569.6187114685
83575.4393091107
83574.9310299988
83579.4402257488
83579.9890851867
83587.4579461645
83587.1761393909
83587.1725589989
83584.1707567509
83590.9062970178
83591.2130745097
83589.4646042567
83588.5267481326
83587.9316475397
83586.6534858373
83582.1261544649
83569.929250221
83556.4180374479
83532.2103940837
83522.0958271901
83494.2152522132
83463.3296978276
83449.4509270829
83428.0738594974
83421.8380621384
83413.7321129633
83413.8771974155
83448.4511071172
83450.798460587
83469.9608456742
83467.3735695965
83463.2336938285
83465.6395303745
83476.9866983216
83475.5952137396
83474.8169176646
83475.3715273863
83481.6983778047
83481.5956860251
83481.1542551495
83480.7546951862
83481.2242350984
83476.3089449956
83475.425117263
83481.8133240937
83484.1547031761
83485.126196597
83451.6748765224
83476.4354089916
83488.8451818969
83473.9573105632
83462.5606178551
83491.755241337
83498.7197665931
83483.7586686765
83521.0167323026
83507.1691180844
83504.8298832665
83506.4649579278
83505.0540676175
83505.6647749408
83476.5950929518
83493.9619404277
83494.7515835281
83483.5279762591
83528.7799859949
83523.0027854383
83514.9392291843
83514.4189632099
83508.5527116948
83509.2614745928
83513.2585020603
83512.3830611493
83523.2645962545
83523.8628533557
83533.5058716277
83533.2766494358
83539.1295707989
83539.3423842732
83548.4168893671
83548.0176695248
83557.4580246607
83557.5256174963
83570.5799650983
83570.7949315504
83581.5406788164
83581.4493208925
83588.1163518809
83588.0492275206
83589.9666135937
83590.2380878561
83590.45339925
83589.9483699286
83585.689152257
83585.979845377
83602.3940852259
83602.5132610717
83595.1309543298
83594.9625307595
83609.7341508049
83610.3256151536
83625.9625789517
83624.8577318772
83639.7142299445
83640.2512291116
83622.4164721314
83622.0373249419
83622.9972530465
83623.3745007927
83626.1283361349
83626.1294416903
83616.5770559539
83616.525416012
83608.5830464598
83608.5719284649
83600.0796676199
83600.0761003448
83602.1465291172
83602.1612967958
83595.6932238847
83595.7326193878
83587.9410513009
83588.0912978461
83582.2638349282
83582.2487101841
83575.8672507535
83576.0686708818
83571.4329649323
83571.3596726432
83566.8539168369
83567.0054580697
83563.5604884052
83563.5970859494
83561.4194846601
83560.9292679051
83559.8270901584
83560.2749623525
83554.7236272495
83554.5567940834
83554.7420874668
83554.6927448028
83549.9569999306
83550.2820555676
83550.9291851789
83550.617913825
83546.3787256911
83547.1726985296
83546.0682635311
83545.2281702017
83541.7589204626
83540.4970966042
83542.1201763706
83543.1606836297
83542.0032472672
83541.0068940682
83539.482562797
83540.728356594
83537.9026177344
83537.0762556238
83538.0380054381
83538.7283477021
83534.764217511
83533.9886186484
83529.9593142184
83530.707913379
83533.3246234599
83533.7192301376
83524.952352832
83526.701417546
83517.6740280488
83509.0029237245
83525.4166902226
83524.0850942755
83528.6869494697
83522.0986638032
83506.4569947646
83491.0798251003
83490.3881642665
83490.579836656
83499.7571875673
83498.5563278022
83486.6223035691
83486.7811528148
83494.8125736274
83494.2894893368
83499.37732177
83499.8067541674
83499.3908658295
83496.0229300213
83489.1255380443
83485.5308297685
83456.8890540767
83438.8694596115
83392.9928033817
83390.6977105913
83402.3360654904
83356.5154338702
83353.8035398835
83331.7225333978
83327.8612719695
83324.2186613787
83328.9352720803
83360.7983040462
83355.8430473478
83338.4702079203
83342.7651448682
83400.4594666493
83401.653151494
83440.3688704985
83441.7467490535
83432.9265697832
83430.9851196911
83466.6318976556
83464.9704800682
83470.4619055189
83469.8846650828
83487.0990152338
83475.0190579099
83475.9515276556
83477.1645433937
83487.6645329567
83479.8717786008
83482.7585567654
83483.8000581154
83466.9258213267
83480.9428511894
83487.3378640418
83481.8788951002
83526.4024200365
83496.4644781595
83500.3698866762
83493.1442048864
83532.4678238508
83517.2229475926
83523.672930721
83550.2680000982
83544.4352150421
83520.0178261302
83512.5942004321
83524.7014340294
83516.177880757
83515.9662162795
83512.1216472883
83511.6771541172
83505.8675017968
83506.670374144
83506.4486582381
83505.0859881761
83507.54052006
83504.1811640935
83500.1104643596
83501.7803606979
83503.4240796054
83503.6357089577
83502.7574781538
83502.4059064912
83503.3737360418
83504.2441058507
83506.7072227311
83505.6188107795
83507.7167102784
83508.5123690479
83518.4942693929
83517.9137699826
83525.5470821341
83526.052732441
83528.8990250584
83528.6866281379
83538.4955197828
83538.6492099276
83548.6565175701
83548.6524930143
83558.8685812152
83558.5685914889
83569.3345442675
83569.952731315
83585.5183660728
83584.9270855583
83599.5846131346
83599.9069672627
83607.8791644956
83607.7769602035
83610.7427815203
83610.7160671629
83609.3291366859
83609.4177535198
83628.6025486999
83629.862255908
83620.5858789427
83619.6095333001
83637.6382093035
83639.406238429
83656.6653355444
83655.6262998954
83660.0760243754
83660.6481564862
83665.3476573556
83665.3529222046
83654.3300265951
83654.2649144066
83645.2030897891
83645.1803043774
83634.3994666571
83634.2656724862
83636.9732350717
83636.8144172069
83628.8829018657
83629.1402497828
83618.538235705
83618.4777622116
83611.0927302242
83611.1984064273
83611.5586000488
83611.4188994976
83603.0188091958
83602.97211947
83596.4008680251
83596.4118144378
83589.1461570649
83589.0313352667
83583.1696728095
83583.198555927
83577.1217511361
83576.9577285178
83572.0700043887
83572.1847370632
83567.5541505769
83567.3660946773
83563.5524406394
83563.3690408125
83563.6216383943
83563.6884308225
83560.907940476
83560.5467875072
83559.8485192651
83559.9941211719
83560.7124605593
83560.4296461384
83559.6348397722
83559.7125854492
83554.8711518224
83554.8866194467
83553.8746057776
83553.9363084659
83549.6374231254
83549.9778219413
83548.5969109848
83548.3044457329
83543.9635422877
83544.7490265157
83543.3462941476
83542.5863583711
83539.6276148941
83538.6067392904
83539.9409789172
83540.8232467717
83538.9294685789
83537.7058595681
83536.849717061
83538.1319864664
83535.324350851
83536.1197667392
83534.8216833704
83533.9700130738
83531.6296693679
83531.8947980569
83534.9651563627
83534.7481307379
83536.5409745294
83536.9885415937
83533.3068279374
83533.3622577776
83531.7698036514
83531.0021472293
83531.110183476
83530.6824010543
83525.4069534866
83525.8035518444
83525.4124438048
83524.2567346178
83518.2137242209
83520.585655096
83506.5810695054
83495.5191005873
83488.4643782602
83494.2177076362
83479.5049050527
83478.6063821254
83462.2936258354
83462.6709200804
83476.3644555395
83476.6888374519
83474.0328240838
83467.6556842013
83453.605218848
83445.6790102766
83440.252636871
83410.9633305656
83389.9787451999
83358.2441027252
83308.3046316374
83318.2330004463
83325.9714148112
83321.3216690179
83312.0437612584
83301.6061576476
83303.0937249767
83287.6514452982
83292.0091009585
83312.4808128224
83314.7383400037
83348.2140019967
83341.7222148339
83380.3551928561
83374.8729801289
83382.6337120401
83388.7367386619
83386.136889452
83382.8255525271
83417.065428873
83415.8953808621
83435.1636445936
83431.3153861189
83461.253807541
83458.3803147326
83458.0418664801
83460.055375537
83465.51339968
83461.5971630704
83462.9741520563
83464.8798143173
83485.0066373481
83479.7475454862
83488.3436482803
83498.87582158
83492.2944666209
83485.4196505881
83487.3190977317
83489.8268633486
83487.2488540377
83490.6941622673
83494.7123705271
83490.8896381298
83513.6267080018
83505.2777004472
83513.743798557
83531.8423513164
83507.8066027646
83504.7603272084
83500.2118486141
83509.5011544996
83502.0594386382
83497.6311660073
83490.2121655543
83488.0923933301
83495.0225351015
83494.2611215626
83497.4822979283
83498.3640257924
83497.8697677678
83497.3389908033
83489.8156373223
83490.8861661175
83493.1920451232
83492.0245108548
83499.0330376698
83499.9644339247
83508.0704386812
83507.5654157076
83518.3470936775
83518.9220090038
83531.7259123987
83531.589601161
83544.7429088472
83544.7558084749
83551.2601136238
83551.3925934011
83557.5099219738
83557.0509071144
83580.4006598386
83581.5338112619
83601.49885171
83600.0094143683
83618.1378769366
83619.8517494775
83629.5757246301
83627.8678632826
83631.1856845349
83632.7050242032
83655.4996270656
83652.6711250261
83648.6845412221
83651.0220361905
83670.5603783832
83668.9727519462
83675.2043061301
83675.9592199903
83681.5987686578
83681.5246871493
83672.2881288118
83672.2037208599
83674.6566243058
83673.8630634849
83668.0842813452
83668.8936865299
83656.6705642218
83656.2965880128
83648.3102030359
83648.773970587
83648.0037581713
83647.31131933
83636.566572412
83636.9791871081
83628.9864647346
83628.6211899986
83618.9016254232
83619.0506948156
83617.1145518275
83616.9239912935
83609.7631808192
83609.9653745331
83602.2429352198
83602.2245196836
83595.7829097303
83595.8409524976
83589.1858697398
83589.1948144374
83583.2921844102
83583.3361310655
83577.5419125184
83577.5777215075
83572.4290060397
83572.4043781869
83567.5656507672
83567.7794649211
83567.7194468499
83567.5513763998
83563.5608503436
83563.4246258282
83563.4463263792
83563.4685938089
83563.0475874921
83562.9424227831
83562.6297945651
83562.6338488215
83560.0514668915
83559.7636075793
83558.656078543
83558.7070974135
83558.7480583086
83558.4531651123
83557.225412653
83557.2689886773
83552.6215038722
83552.4889708934
83550.9117116524
83551.0429396143
83546.8316543221
83547.1320511405
83545.2550054629
83544.9930084998
83540.7109151405
83541.4221806878
83538.7615157336
83538.0995452044
83534.5486416416
83535.1796233859
83532.3765556357
83531.5445572684
83530.0642912682
83531.0158556871
83527.9745592982
83527.4992239334
83523.4399069738
83523.2590213287
83519.8006022219
83520.0706711777
83523.8121130881
83523.7458550231
83527.7408299118
83528.2110030375
83522.9865557652
83521.9069248705
83525.8954426832
83528.6900470253
83525.0689682443
83521.1854212445
83516.4610373345
83517.8022757489
83540.4067764431
83526.9165170895
83520.6705895303
83511.1978213355
83532.3436378279
83524.7102482691
83521.3675666213
83515.487786393
83520.5611122241
83528.359723589
83516.1739804776
83517.2736696359
83509.7532397551
83518.6036702364
83506.4368014513
83500.4475140509
83486.0663634662
83484.8042818752
83483.2413355227
83479.3324748207
83466.0227954688
83462.8684513957
83446.4653460126
83447.1954522759
83435.8646261402
83436.0646473796
83450.4658787896
83451.7371726226
83436.6067438319
83432.0321766445
83433.0298128258
83427.0044758559
83406.8512236076
83410.8552248002
83405.9660876298
83400.2853724784
83368.896241065
83367.193441945
83346.139093361
83345.8015138025
83332.7688457872
83328.2867681433
83303.1055805874
83309.8070091992
83308.1774365844
83306.9677352198
83325.1607951195
83302.5790325344
83294.9803431149
83307.7952063623
83324.1555552591
83309.7121387095
83300.6304009507
83310.7415607537
83301.6680989872
83293.2339142533
83288.4686571914
83299.9113451798
83291.3317480093
83281.3583538962
83272.8671376109
83278.9881172726
83291.5718353756
83285.8438900626
83312.5336692448
83322.1414257389
83320.6160305629
83329.7223382662
83326.7557757405
83316.9861975681
83315.8499613988
83316.7430927531
83353.7929857541
83354.0240018644
83347.3874518491
83347.7043523028
83341.1595197392
83340.8765515118
83334.2779602891
83334.3253399419
83380.3145866017
83379.3774715959
83414.6544370453
83415.7957469063
83442.1683311601
83441.8802479964
83444.8497771337
83445.1215982601
83452.9405042042
83453.4481704929
83459.7255505175
83459.7717432329
83468.2051731812
83469.0823589665
83474.0973797573
83473.5512725229
83482.3062660285
83485.1377792837
83484.0780411352
83485.5829870747
83488.5284652582
83487.2317849771
83478.2158097519
83479.9075068661
83483.9348551397
83485.436241913
83482.4275421389
83481.0025552749
83467.9867060138
83469.7743346828
83473.3537191618
83471.6009302993
83481.9355172231
83483.056134282
83496.7727699217
83496.0514782132
83513.8889711769
83514.1588871336
83535.189216509
83535.2965533596
83533.0537067182
83532.7771708842
83560.2799587355
83561.0363786754
83591.4308983115
83590.0280074169
83614.7236637171
83616.7312215674
83639.7091850514
83637.0172416656
83649.111433084
83652.065297706
83672.4898837492
83670.2642066328
83674.4918541175
83676.5264733918
83686.179943495
83685.3267645776
83689.9232278705
83690.3234439434
83686.1015043201
83685.883372214
83684.9445388589
83686.4709282489
83684.406518565
83683.0361292251
83676.9337098639
83678.8303864572
83671.900478452
83670.4755121643
83665.6992237645
83666.8497149467
83656.0119770145
83655.1790055146
83649.3981414731
83650.1719057125
83642.811895098
83642.1651848583
83632.8607826969
83633.2708168297
83625.7358884068
83625.3870072254
83619.9726522416
83620.3372756919
83613.1939955702
83612.9532839748
83606.7378832814
83606.9541883624
83600.3027347693
83600.1969866124
83594.3046060592
83594.3982002239
83588.368788051
83588.3422068462
83582.7230621237
83582.7640809164
83577.3833610363
83577.3943534907
83572.3450715885
83572.3170349227
83571.8825389449
83571.9339685121
83567.4715813379
83567.280141984
83566.8230454054
83566.9612565914
83566.2992709389
83566.1376261635
83565.2933619675
83565.3861097241
83561.8058585046
83561.8892680384
83561.1858247778
83561.1790276006
83560.1637725936
83560.2514585728
83559.3904197298
83559.3793197755
83556.8256265826
83557.0959362495
83555.5668659427
83555.5326553023
83555.040755158
83555.3216842415
83553.7964457351
83553.7271610462
83549.128776346
83549.4003999191
83547.1187975496
83546.7423765316
83542.6828409959
83542.4201569869
83538.8984445985
83539.1277885582
83534.2735545802
83534.1372350472
83529.7877737126
83530.4005508157
83527.5136295751
83526.6340176011
83524.9864733942
83526.108133018
83522.9755343904
83522.1075627673
83517.7392522881
83517.8950707198
83514.2314632123
83514.7889908193
83513.0342542603
83509.2243562144
83514.6586825867
83515.3049708581
83518.4628877489
83518.1287679642
83511.7833482574
83511.8443034415
83506.4211496653
83506.5847876797
83509.420731835
83508.6916969243
83501.594490943
83502.0096859408
83508.7782107167
83509.5021871239
83504.0052879281
83502.3743871825
83510.4667097929
83515.5432068699
83503.7130260773
83499.910641264
83493.2027864693
83498.9715342334
83489.9539941573
83486.8104709328
83478.5958940434
83489.2269140337
83466.4762504982
83468.206868053
83452.3722674419
83455.6219818947
83431.0465327469
83429.1785949701
83414.59889567
83416.241463472
83399.3127404707
83396.5465652336
83420.575287614
83423.0432549897
83415.5127591567
83402.2807869164
83372.7628561507
83379.1130621058
83380.8572184883
83356.6724833901
83354.5222205213
83330.7170481998
83333.9572996028
83323.89032285
83323.1979375624
83305.842772476
83302.4653639536
83307.2700553723
83301.0468364787
83297.6435446803
83306.026135636
83288.1185188671
83284.4860828448
83278.7266602276
83280.4013160549
83281.6431162762
83276.6751432687
83285.8490351811
83291.7281979151
83286.0773439223
83280.3490753667
83277.1563859721
83283.5602636374
83278.492433765
83272.2359062783
83265.3055489776
83266.488592758
83261.4024712654
83261.6131790047
83256.7716612722
83256.6305149632
83262.7165109057
83260.177939905
83264.090171645
83265.3511416717
83267.5233221032
83259.7582183912
83255.389075825
83251.9256100326
83286.7019242746
83283.2301856835
83269.9910011634
83272.317423315
83253.142598519
83248.6466936478
83228.3594580267
83232.8936505832
83283.7690867229
83280.4101007558
83265.7872720224
83268.6601148429
83250.5924198957
83245.0135718253
83221.1314649908
83230.9040248007
83210.6319484282
83199.479677885
83181.2489769242
83189.019699159
83216.7115628493
83210.7754930881
83207.8814100377
83209.8309766637
83207.561565021
83206.3440708555
83206.5858606164
83207.3527705738
83208.0603883539
83207.3685460091
83279.1497914636
83280.6449264658
83281.4838032176
83280.1036295936
83283.4232486225
83283.7994785904
83308.9591373465
83309.9464720452
83315.8615271398
83315.3194818899
83325.2063998174
83325.3412443813
83338.4649661657
83338.201157619
83355.3223271142
83355.6426850487
83377.0989534954
83376.2161580909
83399.2306953785
83400.4001560037
83425.8732011364
83424.3077066315
83447.6814176759
83449.39130781
83472.1617585606
83470.1708024011
83488.1511380523
83490.1674049719
83506.3721176482
83504.3459409749
83515.9969661119
83517.788850493
83528.9494639043
83527.4606804337
83535.6272143976
83536.6114741505
83547.7467039754
83547.3339748419
83560.5716152672
83560.5561567839
83579.2313517075
83579.2393983997
83603.8598946248
83604.3311801619
83626.4518957286
83625.4202164314
83642.4278670804
83643.5852322697
83647.3896204759
83646.3063118522
83645.7166480646
83646.5971865009
83640.0875339945
83639.3582025722
83633.6787148686
83634.2949807157
83626.6424713584