/*--------------------------------*- C++ -*----------------------------------*\
| =========                 |                                                 |
| \\      /  F ield         | OpenFOAM: The Open Source CFD Toolbox           |
|  \\    /   O peration     | Version:  2312                                  |
|   \\  /    A nd           | Website:  www.openfoam.com                      |
|    \\/     M anipulation  |                                                 |
\*---------------------------------------------------------------------------*/
FoamFile
{
    version     2.0;
    format      ascii;
    arch        "LSB;label=32;scalar=64";
    class       volScalarField;
    location    "1600";
    object      k;
}
// * * * * * * * * * * * * * * * * * * * * * * * * * * * * * * * * * * * * * //

dimensions      [0 2 -2 0 0 0 0];

internalField   nonuniform List<scalar> 
162506
(
0.0150874383953268
0.0150914174069504
0.0162984835237505
0.016406157807249
0.0167317962081519
0.0165728458816607
0.0151721382500829
0.0151278935839018
0.0164311371484069
0.0158106849869838
0.0153535826301121
0.0150314499839598
0.0150685530753615
0.0150490509809313
0.0150132782571413
0.0150111124648465
0.0153245830258804
0.0157351452421647
0.0150448997137498
0.0150920088094153
0.0150561205542791
0.0153412033560185
0.0157499525355618
0.0158004576361432
0.0153758461646429
0.0153291032424006
0.0158118068601338
0.015010302801763
0.0157516776917251
0.0153092747580502
0.0150027627562205
0.0150029863390503
0.0150132931289425
0.0150007572835416
0.014998532911502
0.0149980729406586
0.0153027721172217
0.0157509027758958
0.015000677066021
0.015075761464409
0.0162854801745672
0.0162868554504541
0.0150717909472744
0.0151160598568225
0.0169421919504216
0.0169512054852623
0.0151187330889067
0.0152570867749126
0.0173879867441002
0.0177210760924989
0.0171052302241913
0.0178912133462391
0.0188732824077926
0.0183098435863562
0.0153536692765692
0.0153030201048711
0.0179965978665794
0.0171592098259743
0.0152291546446002
0.0153346206044913
0.0172187162308226
0.0164794367846001
0.0151769324804533
0.015052443851457
0.0150163650658256
0.0153484057689041
0.0158681893764587
0.0158296423601031
0.0153008631756647
0.0150080529476751
0.0150285256429933
0.0150161667949063
0.0150051476796142
0.0150106214497128
0.0150288340616782
0.0150320625627879
0.0150755664783158
0.015074062763099
0.0151496132274618
0.0164186906189479
0.0164364997228338
0.0150885544577828
0.0150133190478062
0.0150029099877841
0.0152981225665758
0.0158259487899066
0.0159353881316357
0.0153536403212946
0.0150018581418613
0.0150105539551326
0.0150023462945321
0.0150017030047044
0.0150002022464889
0.0150016852761345
0.0150056203254003
0.0150010576020521
0.0149989931248411
0.0149990704129705
0.0149995982832929
0.0149992875411185
0.0149990341660296
0.0150012861504952
0.0150010931760188
0.0157505482091554
0.0153026016375352
0.0149986581930721
0.0150033832111109
0.0153088191401753
0.0157507506646668
0.0150109396021216
0.0150707143135649
0.016284884249495
0.0162846432713012
0.0150740094418392
0.0151145634721804
0.0169491028384886
0.0169507425830812
0.0151214113490973
0.0151609843645571
0.0177427048820299
0.017708623468954
0.0151609747881373
0.0151559803663425
0.0176894523562836
0.0185155112806729
0.0154778520463399
0.0157733502863076
0.0193271302660411
0.0201357512622414
0.0187404903870455
0.0197544370972813
0.0212819271630323
0.0206036806847785
0.0166404440469772
0.0160703255637653
0.0201731826315062
0.0189447458051623
0.0155807522535512
0.0154595049634637
0.0192316942082149
0.0181480276558409
0.0153564357443885
0.0153191015491431
0.0180739312614558
0.0171542753960078
0.0152749561488373
0.0151438178169262
0.0171857335341532
0.0174783201375509
0.0153348842284286
0.0151510241290551
0.0166207398198255
0.0166981198615144
0.0151203404422256
0.0150080614249956
0.0150015653959557
0.0153820114993018
0.0159814349468786
0.0159210453280044
0.0153476059722318
0.0149991343238102
0.0150044518023421
0.014999992854722
0.014999803893715
0.0149990196294584
0.014997354541118
0.0149981384839243
0.014999300071103
0.0150004430637698
0.0150013936057149
0.015006024201161
0.0150015120330711
0.0150035956832311
0.0150140270638468
0.0150497374427088
0.015014128678907
0.0150119434778624
0.0153238174892108
0.0157333458681681
0.0150455779321422
0.0150882388873511
0.016294872301092
0.0169447246860877
0.015116761500868
0.0151124762163312
0.0169381690241359
0.0177001629637036
0.0151561190920269
0.0151529573521131
0.0177391655185056
0.0186637973284549
0.0153746086326616
0.0153853131166315
0.0186716596589181
0.0185900411684096
0.0154163535939939
0.0160095813302821
0.0197382748329943
0.0195753776455445
0.0160848135363748
0.0162791795512012
0.0199770355877843
0.0209295855931312
0.0172501785127686
0.0174642416742868
0.0213908145482104
0.0215299937552692
0.0172733287085957
0.0165756066299973
0.0205513230330301
0.0214114964059106
0.0167621191554438
0.0173598478176223
0.0228682370266615
0.0248019409502237
0.0179858167746712
0.0186079530977542
0.0246888615588197
0.0251687059899144
0.0290170362781467
0.0266327901882372
0.0192639217073574
0.0190593881352151
0.0264464481440137
0.0258197486581177
0.0188988185386223
0.0186103324978224
0.0233789309202513
0.0263198032301821
0.0251223188486159
0.0234563514442045
0.0178163199610293
0.0218782855975103
0.0241517423194935
0.0228177203255525
0.0208574187609227
0.0173613919756129
0.0224802425769843
0.0223282577026894
0.0170299071755276
0.0162416100735502
0.0220603922688337
0.0205338444790493
0.0157262231200323
0.0154751645732675
0.0204120718277364
0.0191503065616063
0.0153652987953239
0.0152162485110243
0.0191479042177781
0.0180896387908247
0.0151791173582843
0.0154001368221814
0.018588968714573
0.0186843050964901
0.0154149088556327
0.0153323210746548
0.0175659462544535
0.0173564391291835
0.0151140835075469
0.0150459168259758
0.016589093687504
0.016584409140653
0.0150512518025905
0.0150065867944756
0.0159179873829242
0.0153470335774133
0.0150000940540872
0.0150001579625561
0.01500157075623
0.0150065625756397
0.0150010108323935
0.0150022384585093
0.0150047765671554
0.0159757600089251
0.0153804536014781
0.01535175832409
0.0150004188197964
0.0150096504979452
0.015930662781143
0.0166115378555739
0.0151527089413696
0.0150890374737085
0.0164278973288766
0.0164136157834344
0.0151510017585048
0.015028051804728
0.0150086081442082
0.0152998121357477
0.0158276028520202
0.0158213280398891
0.0152968923427633
0.0150033700152118
0.0150136349553554
0.0158641267879223
0.0150517620473474
0.0150157871056593
0.0153471398197001
0.0153527039840451
0.0150309246577448
0.0150675199999687
0.0157898278054516
0.0164049935013225
0.0151417079280555
0.0152427102933365
0.0164323694541069
0.0166318913640333
0.0164490100853561
0.0157543626278343
0.0153310145078142
0.0150325459265606
0.0150695413288981
0.0157621257054489
0.0153310696272314
0.0153751731158676
0.0157680018484625
0.0172587873467453
0.0176110772053004
0.0171293888055374
0.0153430290381627
0.0152483003699647
0.017128719728281
0.0179579926994646
0.0153269004939763
0.0154393830810541
0.0179093246012495
0.0187463981005172
0.0181667091311863
0.0192067971123358
0.0199514324220809
0.0187478906348821
0.0159052016715265
0.0154942696642418
0.0184965230584169
0.0185731596306302
0.0154064637573418
0.0159948422178275
0.0196867516487915
0.0198426163528894
0.0159389146550857
0.015949653722712
0.0198637946451235
0.021773547568039
0.0168019102238548
0.0174225068014747
0.0232503847707465
0.0255984928858224
0.017868353012357
0.0177952340004178
0.0249948860837446
0.0277449329621608
0.0192018044087564
0.0193825984188216
0.0272002534129662
0.026526704140753
0.0195651104255078
0.0193423577646935
0.0284008275697991
0.0325049622576198
0.0274061270210641
0.0297489331885746
0.0357772016412087
0.0303549283150857
0.0198055814873339
0.0193352609337223
0.0298746476728497
0.0279417652107018
0.0192183557601079
0.0190446916504762
0.0267172693637168
0.025363640965672
0.0185726747319948
0.0180212204569203
0.0236290649317293
0.0232633476635395
0.0173841359258009
0.0172257573844462
0.0244848741547619
0.0239529903310786
0.0168208301350531
0.0158353598599326
0.0219187437604834
0.0218219172054259
0.0155143835072113
0.0152822197110246
0.0203790106163774
0.0215500769126452
0.0155261146491068
0.0154627501788468
0.0199338611241903
0.0200328392351975
0.0154888665428568
0.015222115322752
0.0193160329343846
0.0182610212955197
0.0151697903227705
0.0151752854379995
0.0182537678266708
0.0173510508864267
0.0151195114643892
0.0153352789817948
0.0175537192745894
0.0166888423459872
0.0151252774933397
0.0150475514790043
0.0150072243631205
0.0150113884856557
0.0150051956233192
0.0150040789128785
0.0150039363672982
0.0150020947385913
0.0150443723776951
0.0150230539260366
0.0150544959912238
0.0153358143417027
0.0174643464671298
0.0171728952175056
0.0151410998035673
0.015275959227527
0.0171447703680203
0.0172068349382485
0.0153372615417703
0.0153622031654779
0.0181292469180705
0.0192001084799812
0.0154765906817542
0.0156204631489431
0.0189001055498201
0.0201119971122131
0.0161503696423509
0.0167160126953959
0.0197598063815256
0.0210513182683912
0.0204362292709236
0.0222383644858652
0.022547597596567
0.0208759134917644
0.0174712236034057
0.0173139122058437
0.0208576484532459
0.019912910956832
0.0162678308791313
0.0165699537385066
0.0204830438295641
0.0213622556966884
0.0173856337371358
0.0175366313153956
0.0212831255646515
0.0218425414981648
0.0178843626961254
0.0233642254483086
0.0238260794306329
0.0259616983249668
0.0233869275271845
0.0188736163659095
0.0249825657904289
0.0259601493319205
0.0193759951034926
0.0197053142515163
0.0266003733809376
0.0262509281066312
0.0277918839969548
0.0250352393295471
0.0199079291813723
0.0191455000593523
0.0244450655189585
0.0246513867327667
0.0184991005076168
0.0180749726123298
0.0248511362324104
0.0255004997944417
0.0179944281529274
0.0178874954837477
0.0256343700097946
0.025712628545539
0.0178798795017674
0.0194855161174563
0.0287973259373352
0.0285717230141367
0.0194432176810472
0.0207612722337186
0.0306558060503541
0.0297619653433409
0.0204691100064368
0.0203393253899065
0.0296187202650102
0.0288374045801002
0.0203687732895328
0.0199483018654784
0.0284543514181386
0.0294750393115888
0.0204636619665535
0.0211950782943681
0.0333763197096952
0.0325847420830744
0.039762951812602
0.0323805887680306
0.0201644049306135
0.0194864522337974
0.0318904044468943
0.0312184335914905
0.0192936611156219
0.0189950904874159
0.0294604635767882
0.0273258914463649
0.0188777521710496
0.0179839175739562
0.0261948785868838
0.0248832354971497
0.0176793198098686
0.0168146561892178
0.016075587012383
0.0154545936135189
0.0155063874851201
0.0157025547626734
0.0164471974988701
0.0240438104455082
0.0256185185619213
0.0165368497850669
0.0164867111557208
0.0252939307826128
0.0248925364769123
0.0166458340005435
0.0166026992251264
0.0246070247518369
0.0252966059091833
0.0175138684739012
0.0174566969383461
0.0255174911811997
0.0259255817229658
0.0174757895648888
0.0180519030935132
0.0264804248241404
0.0260116584809806
0.0181220628107322
0.0173173526870701
0.0246177037818998
0.0167211040872359
0.0185780723129659
0.027697971979723
0.0295080399543363
0.0195213401237957
0.0190338789832359
0.0285416557261973
0.0273943342893621
0.0177885054920826
0.0167502862347911
0.0282874974785094
0.0307793817579432
0.0163269638340032
0.0162197958711945
0.0281167067619017
0.0256235377567494
0.0160800338637066
0.0156151399035324
0.0234648081456349
0.0235578022240107
0.0156432848176453
0.0155555798415517
0.0216481035946155
0.0205351944498013
0.0152732382447556
0.0152784816657739
0.0205195966947617
0.019305633964284
0.0152277559181249
0.0154878131524142
0.0199975326758686
0.0186644808466739
0.0154168604364991
0.0153956777586164
0.0185668868785796
0.0180698103317809
0.0151682930781496
0.0153179648876814
0.0180564580932353
0.0191197214599738
0.015359308749012
0.0154569933853037
0.0203616656911941
0.0204823925302967
0.015801465329382
0.016348075932671
0.022034306684855
0.0222552323061706
0.0171528285570378
0.0181997018984409
0.0236994626883263
0.0251536556098512
0.019097750831695
0.0196244098266522
0.0275206357685231
0.0282754099714716
0.0199961354171715
0.0198438770416555
0.0271623933565492
0.0282944207727839
0.020800332682455
0.0208306758292864
0.0289294767535676
0.0291535587101857
0.0202658873417339
0.0207800434783039
0.0308083045347053
0.0320603763996387
0.0371266143691279
0.032358855549262
0.0225350042934285
0.0228270121572046
0.0320681046586136
0.0307446465681799
0.0223627354176256
0.0213941900992421
0.0291862349692874
0.0332557233402415
0.0296506087908458
0.0282650169910867
0.0308631582842427
0.0274103584905262
0.0213041789848258
0.0208224262016229
0.0272707263865496
0.027326554908055
0.0200894167741672
0.0195529284959266
0.0277482920856952
0.0285466410730804
0.0195772653865278
0.0194993247511436
0.0287408545691002
0.0309651750831606
0.0209338896406402
0.0209629112088999
0.0310380221706232
0.030964595165847
0.0208580404379714
0.0208557568084692
0.0307303855175931
0.0339659577986713
0.0228345844420653
0.0226949153998203
0.0338456415439599
0.0328951974721147
0.0223019411888599
0.0220339120188279
0.0325179261035561
0.0313464679518304
0.0214773174377988
0.0205906250515599
0.0304851761790003
0.0325565149706872
0.0211746042617711
0.0214193522619799
0.0352177988596283
0.0380337307917074
0.0216600090184047
0.0215239546386539
0.0383274337814261
0.0356880423583488
0.0438686539161038
0.034440445368187
0.0204829324555362
0.0196442258128098
0.0340499628344897
0.0338501885440865
0.0194458010970243
0.0190916839455126
0.031773869160129
0.0301323687543253
0.0184917508264135
0.0182068823908765
0.0281045503569701
0.0171912973295757
0.0164979896080655
0.0162089011785752
0.0162997500822782
0.0157435119641051
0.0156687349176758
0.0156028087996656
0.0155606033355389
0.0153306410210259
0.0152787669723287
0.0155796488345124
0.0250896508360138
0.0234639657668537
0.0154393732514229
0.0153375515436811
0.0219273932842157
0.0219030667655622
0.0153351034297386
0.0156238868851888
0.0234459481371469
0.0215816749006138
0.0155561067025377
0.0154936028344509
0.0214793820256909
0.0203315677064545
0.0152520933490039
0.0155951614224049
0.0217356228112578
0.0218274520829741
0.015974624404861
0.0170584246747304
0.0240196666961915
0.0245796101941422
0.0176643834072127
0.0174956645872691
0.0232196215319745
0.0250054061457289
0.0179217315701011
0.0187672300747652
0.0257188715838467
0.0283887892836345
0.0189357050082096
0.0200882165546328
0.0311463721440947
0.0320968043337274
0.0206815024596743
0.0228926854903697
0.0349042395502748
0.0399955903132739
0.0334744074564732
0.0353288596154523
0.0444297792290998
0.0387624627404447
0.0232287627018301
0.0240055380537134
0.0387736806091043
0.0359854010739442
0.0247585538468018
0.0245318648987247
0.0357363450363835
0.0371855965770815
0.0247772413986391
0.0255306301849573
0.0378644808056234
0.0380496615104454
0.0252073163367354
0.0254509673976541
0.038453466962692
0.0400765551139766
0.0257846836932362
0.0257927375936542
0.0403106579837898
0.0409344543804178
0.0258409974626071
0.0258258179221585
0.0408648800987379
0.0406239908438321
0.0258233758580591
0.0256615947865365
0.0402715632236055
0.0395154926512125
0.0254687573159771
0.0251903174974947
0.039189988687666
0.0385845773204441
0.0249065925465263
0.0237745822437523
0.037541204733389
0.0347201704769471
0.022360041707653
0.0227076067794906
0.0390257406931462
0.0439791420844345
0.0230636017107108
0.0234920300845465
0.0506261653732774
0.0411891734381577
0.0218393266534057
0.0221176742873161
0.0451498914785898
0.044362893670204
0.0218386442586264
0.0207963292019493
0.0367273080332991
0.0487825750269106
0.0393401033034983
0.0431142446273762
0.0537905495022678
0.0395162816352949
0.0211006457998126
0.0200978227835879
0.0390738029544397
0.0364308596315761
0.0197920631620989
0.0196484340089101
0.0367486213016582
0.0343386299403669
0.0192154438677707
0.0186244612879639
0.0324401881288971
0.0317552218505374
0.0192400202056734
0.0190258801784424
0.0294916416767192
0.0171753468008237
0.0174011875546549
0.0168661458931157
0.0157772342643994
0.0158366945082917
0.0156463966384864
0.0160434674312715
0.0309698693412822
0.0282546079680625
0.0158910738251301
0.0157691986449565
0.0257857869069355
0.0153871262751794
0.0151976624077601
0.015191963745191
0.0154381300242231
0.0233956954570797
0.0255820777528204
0.0157144937488975
0.0156973336749745
0.0255071640831848
0.023412351386974
0.0159671219505199
0.0164559875451228
0.0259273603559076
0.0251553489646196
0.0172712154173718
0.0178681469855069
0.0256115087840215
0.0261989023121694
0.0185439203779735
0.0181114352578296
0.0262498150087958
0.0269924663744723
0.0182038100881994
0.0184364613154461
0.0291535559672139
0.031028890503409
0.0191844808768537
0.0204274581230299
0.0348791202047308
0.0332486347698133
0.0208237834078201
0.020960110144347
0.0354523300202427
0.0375529494252649
0.0484511652551124
0.0426670795476246
0.0235214968451542
0.024390262944622
0.0436386545321146
0.0412224118147853
0.0259725760706217
0.0266326675911837
0.0417063547607815
0.0449850364863828
0.0267285629086806
0.0267399691117425
0.0462876453162394
0.0466989093908747
0.0268708234266532
0.0273782746952716
0.0487458889689407
0.0493055960526834
0.0271605588162369
0.0274756476027662
0.0506410218853335
0.0511927801640543
0.0276183160398796
0.0280109468349621
0.0527525198276135
0.054538659343285
0.0281926726047754
0.0282396053613384
0.0552532060246344
0.0553595844017746
0.0280884031211563
0.0283718577473927
0.0559030548078579
0.057040541047074
0.0283718107904518
0.0282846447379339
0.0570876058619348
0.0570220934765966
0.0283430785538209
0.0283496823355832
0.0567068490199795
0.0562821599617039
0.0284727069012691
0.028188604984721
0.0554862592548095
0.0553151189611727
0.0282089890296102
0.0280649319484615
0.0542392577409894
0.0532821373847513
0.0280104103862425
0.0276492412372551
0.051830093516402
0.0512968678956102
0.0274728164127594
0.0271013758372004
0.0499667618584559
0.0491083601485664
0.0269054187371596
0.02628927200504
0.0473279322504467
0.0471903516438508
0.0260929031008702
0.0259773833655207
0.0417881333447831
0.0432806404022987
0.0265940440646645
0.0267563231683209
0.043643698615429
0.0442589331995344
0.027102555369098
0.0271944785300715
0.0442699063372688
0.0450864170796433
0.0275603236825496
0.0275832114593489
0.0455807186453303
0.0462492512406586
0.0277773806373008
0.0277216333700179
0.0462780697841364
0.0467558119229568
0.0279596859236183
0.0278571251100937
0.0469111100890974
0.0471647289431344
0.0278741886639417
0.0278415764932375
0.0471551824887815
0.0470940526983001
0.0278791835377448
0.0278436368898368
0.0463611981635867
0.0460513928324138
0.0276531230710051
0.0278128779816433
0.0460376813851075
0.0455253368998906
0.0277082375064294
0.0274939829860096
0.0440536751974261
0.0431859856867221
0.0271226423347796
0.0270596500361596
0.0430089062919068
0.0423876974694572
0.0267625221867077
0.0270877688294456
0.0422942514134213
0.0409179691610773
0.0265846728842209
0.0268265165032895
0.022866838170612
0.0204830186358993
0.0179137499775741
0.0173706169992518
0.0166260969124408
0.0164761946070945
0.0159052195373027
0.015788251745642
0.0157547642088977
0.015496538078662
0.0154185235661495
0.015862223221904
0.0279424710761595
0.0281004056693437
0.0159500824926185
0.0161468595173981
0.0309564866191254
0.0286631546248348
0.0167894508116678
0.0173486729028258
0.028446923220129
0.0268332491461943
0.0171999122360316
0.0182357767685635
0.0278493498306284
0.0285533509684968
0.0189508089460545
0.0184207770935114
0.028336061373011
0.0305932816025189
0.0186094850928649
0.0186833844414256
0.0313471943691909
0.0338764815372837
0.019525021803491
0.0210710792854959
0.0392678206849471
0.0374825800317141
0.0214944224301606
0.0246657976359538
0.0403052562847976
0.0534842380327516
0.0468963861797695
0.0496490307184689
0.0248362548267337
0.0264242014887266
0.0481639515024925
0.0523017010654553
0.0271216364096629
0.0281838362771993
0.0556900429468687
0.0583920093457236
0.0282773328104498
0.0282626590899599
0.0620099910513926
0.0630288373397677
0.0275908575051871
0.0282394053397928
0.0656803986637928
0.0667810002234003
0.0283243583614493
0.0288068137133682
0.0692578842651646
0.0707462851541336
0.0292609083576004
0.0297793869797922
0.0729044430948313
0.0744258278698728
0.03007325930788
0.030271988661269
0.074786954917811
0.0750407829786512
0.0303473580623936
0.0308152960293534
0.0760648544428196
0.0779170487337657
0.0307806241434868
0.0306966197312897
0.0777727364928942
0.0775258882891338
0.0307927732379165
0.0306978281927865
0.0772707774251093
0.076551236411036
0.0307638285436727
0.0303550680054099
0.0755663236940303
0.0754312332984158
0.0300930227678359
0.0297828638657528
0.0746082873347368
0.073327319521869
0.0295180541621331
0.0290760811421448
0.0711242422172605
0.0690038049983177
0.0286275386762267
0.0280812891048976
0.0664959473034885
0.0658128490203079
0.0277177457202195
0.02700547036513
0.0645331281869219
0.0568782962051465
0.0259451224937976
0.0256918540423113
0.0509706012730559
0.0454890291772466
0.0242395654655948
0.024745647061
0.0548914025638619
0.0675588059419241
0.0252611628785383
0.0258281108347293
0.0867931403789293
0.059190519983949
0.0239139335227011
0.0243347519048778
0.0713164461202775
0.0490361973520638
0.0222652284204504
0.0225015940215284
0.0548211801134624
0.0520987886925978
0.0220953514645226
0.0223369975753794
0.0617868715136823
0.0483953143894663
0.0598761107875235
0.0429833464732467
0.0233059026618245
0.0218667257069221
0.0419956240748016
0.0433377141511045
0.0215355540193217
0.0203269725150015
0.0412120532351078
0.0373053581994928
0.0193455735302193
0.0187374105004178
0.0350422154160123
0.034297719749823
0.0193163159398629
0.019784153965329
0.0350899185645185
0.0321351197415123
0.0197579040130637
0.0191691275582028
0.0310839032586402
0.0289889459149453
0.0176045611244314
0.0176597509987954
0.0306992636451373
0.0314619116181312
0.0172929796297091
0.0174452493189482
0.0342376318920938
0.0342409518740966
0.0162300350858205
0.0158439810161557
0.028901170266761
0.0268218268033478
0.0157262845095781
0.0157269727252699
0.0266773792678268
0.0249730096357356
0.0155783326670236
0.0152760809215389
0.0153773415620678
0.0155503532878558
0.0160450283307275
0.0305893492008256
0.0338458479689516
0.0163104747508768
0.0175233898218123
0.0342723953510455
0.0317819278815801
0.0174972605999228
0.0174374185295788
0.0315692612131067
0.0298414765003771
0.0173229950941496
0.018518720555152
0.0329239158174466
0.0303370615138449
0.0183898300016819
0.0191054701651051
0.0312270363829453
0.0341818155241417
0.0192161388724323
0.0187782954086866
0.0330334060242402
0.0337797912312572
0.0189028183495491
0.0198506323648761
0.0371124704280283
0.0442188930125886
0.0214188402870725
0.0217951486895672
0.0424335517524534
0.0475212486377203
0.0675403565111604
0.0574469673112809
0.0254104903857879
0.0256045556397182
0.0661075748839457
0.0699360280583909
0.0273254559709958
0.0280487560518329
0.0887330162764522
0.0968937927060906
0.0289167514241071
0.0324273281034037
0.135637808195033
0.136494145782277
0.0326197830758944
0.0339572771566042
0.142820759918681
0.156364452744382
0.0381120083887751
0.0444885494194821
0.156085435997901
0.179375980821453
0.0495175219774308
0.0505744858450603
0.187579055569436
0.191749596618772
0.0502968510499959
0.0494444995291143
0.192237183472374
0.193010244892613
0.0495774049193649
0.0492041348704734
0.191404679192429
0.190486713555345
0.0496817139266598
0.0492761752014885
0.187837323362959
0.187301547365896
0.0497250955388332
0.0493981056101103
0.18461981865406
0.185150558479904
0.0498851406534655
0.0496128372304333
0.183750874139969
0.185750109987457
0.0502199398197247
0.05028951046355
0.185992941993024
0.188729221368493
0.050867275575558
0.0506003627233285
0.192785485940249
0.194214933649782
0.0506310635489501
0.0503598292673621
0.192303610232456
0.191450475645617
0.0505292548433389
0.050856590673818
0.191285805616756
0.190351160306883
0.0504429853493511
0.0506540097173631
0.192169464065983
0.190538813493666
0.0502392065148561
0.0508021403414254
0.191686990247034
0.189989257388133
0.0502885845074712
0.0504312628176788
0.190692819119398
0.189649778718362
0.0498938750079275
0.0502091687946717
0.191900455257268
0.19220557121038
0.0497448455577796
0.0501303833461937
0.195543791163949
0.196926583614751
0.0496361706975116
0.0502833823700588
0.199848864141005
0.200171477711662
0.0504292584661514
0.051492744569748
0.200016932712022
0.195356480464469
0.0517282146697831
0.0504535488362856
0.186054828840695
0.160808891099934
0.0452388821831237
0.0393274030422471
0.162050875518881
0.15232590081798
0.0354862111850871
0.0323805769948296
0.149906440583039
0.10167956265621
0.027413466987236
0.0267470900033529
0.0842912224681854
0.0732626146442845
0.026424195135694
0.0260114615875762
0.0635911370495514
0.0774807053942646
0.0275453339714293
0.0288593940835966
0.0940042544239008
0.117295491261247
0.0300649769672009
0.0331210372747063
0.117331974929535
0.121557024010871
0.0371847657548419
0.0438489270673316
0.137943863978911
0.147635383125946
0.0495142817480232
0.0506706473656374
0.153197907721612
0.157543158014487
0.0509956599208429
0.0495371793639891
0.159782455073967
0.162110030659102
0.0494527153434921
0.0483479223578942
0.160732361937896
0.161552121568532
0.0489959277812767
0.0483308127836111
0.159061178545082
0.160211653542434
0.0489376223088417
0.0484161687586471
0.158197357577212
0.159954133815854
0.0490622396801201
0.0487890838028555
0.159345601521575
0.161210128878044
0.0494092049157084
0.0487524919758197
0.160659360079711
0.162005820881289
0.0492341608172475
0.0489847199817295
0.160599008081983
0.161496435601245
0.0494020148871782
0.0490753993205967
0.161748443731136
0.162055014800844
0.0489440931633224
0.0492095001402939
0.163501901282444
0.162674949802769
0.0491275852249306
0.0494006909489601
0.159069704409346
0.157037702909203
0.0488008607742232
0.0487894587387635
0.156566330507721
0.1546614808339
0.0481289277822334
0.0485390307176164
0.155923078648554
0.15456992132215
0.0479407691952287
0.0484539189195824
0.156910614508509
0.155985262403848
0.0478738814859531
0.0485468209742442
0.157795379455064
0.156727716288842
0.047932872471679
0.0486765870967742
0.156940041751875
0.154040592393026
0.0485030156950111
0.0497954550999984
0.151838622075703
0.14777517990153
0.0495814511844346
0.0485349348639476
0.142844675516235
0.133889933922795
0.0431233252708968
0.0358528174384904
0.119078478391051
0.111040856278459
0.0414226836256416
0.0457615206778378
0.11653850258526
0.119744807508666
0.0465992795716467
0.0474140084542241
0.122815776225322
0.124119826681678
0.0463425356228028
0.0471658990294563
0.126956116952198
0.126924242689381
0.0461949245762456
0.0469350563601667
0.129335707517579
0.128123428291771
0.0459024059281058
0.0466619546749791
0.130026507681376
0.127972853839024
0.0459138077138748
0.0466489373416606
0.129723831050789
0.128672322732092
0.0460815459361439
0.0467836112038393
0.13027378936675
0.130942810509654
0.0467342753119443
0.047344829101331
0.132242093737131
0.135374161216293
0.0470626337907045
0.0471912690609325
0.135866234233373
0.134797402730692
0.046934659320778
0.0470157696688142
0.134723967109189
0.13442724093604
0.0473319640811277
0.0469407562494074
0.133767641663604
0.134798809029887
0.0472257639108862
0.046683784656098
0.133711810385331
0.133824104706913
0.0474489482425375
0.0467072789894607
0.132120705057578
0.132594921783709
0.0471376160241838
0.0463608007804492
0.130523718246355
0.132336028847303
0.0471490330509371
0.0463375335579141
0.130215040315461
0.132144262890709
0.0474028701667019
0.0466082837102622
0.129796406002201
0.131095253177053
0.0479538073935287
0.0472628196596973
0.128485336364011
0.127043198612654
0.0484721877305508
0.0475577273386857
0.123773183793939
0.1201616870442
0.0467089108564547
0.0421133045198393
0.114335285865178
0.103564038852388
0.0379694583214754
0.0328117258048197
0.0950291324526357
0.0940210000311727
0.0306276716447982
0.0287940608835456
0.0780363156020732
0.0791212423307848
0.0294099045466614
0.0302381963097833
0.082876567303379
0.0862232385850032
0.0305681754484687
0.0393014171341159
0.108492655336827
0.112099882925721
0.038977142519532
0.0386433446441721
0.112906595392079
0.113107684725973
0.0385666101947621
0.0386560355463669
0.11320936364292
0.114425943061294
0.0389393978229758
0.0387831148345312
0.115538043800057
0.115562044853541
0.0388730013578121
0.0387097709392677
0.116111531178483
0.116699307413964
0.0388336845929448
0.0389517190655762
0.113430197467626
0.111657864399332
0.0385061345741682
0.0383825566632123
0.11117532369386
0.111324433586114
0.0383095201519618
0.0384466129614762
0.110459185093035
0.10836782255903
0.0385081393189374
0.0387096460082838
0.10509222523817
0.100649290655785
0.0372280596252488
0.0318404575780935
0.093891669092702
0.0896880154892415
0.0292857156894375
0.0316616577719613
0.111305160220959
0.108088415486117
0.030711337581354
0.0302767142115245
0.106567881405296
0.080506786860573
0.0284480099220915
0.0275815108456769
0.0665763355495833
0.0696746820157249
0.0282907363647403
0.0292333422715471
0.085275164304864
0.0879415345724919
0.0291718280296945
0.0285229322537315
0.072840172780365
0.0742923943995054
0.0281514407365963
0.0290050671619251
0.0782895500682956
0.0804244381369377
0.0298094224194445
0.0302632846297441
0.0837188573719953
0.0855242664403233
0.0305060524016907
0.0312631496823426
0.0865265173662111
0.0867914317892223
0.0317996603930431
0.0321760633461232
0.0864475266591696
0.0864507623524858
0.0324325568589398
0.0329802114024772
0.0876243904497444
0.0896606585023585
0.0329740405943593
0.0328934410455371
0.0894178656700899
0.0890921916835693
0.0329957218726963
0.0328545857977388
0.0888542078483908
0.0883367188184209
0.0328226422039513
0.0323223140205707
0.0876456213126841
0.088139135347588
0.0318318164674143
0.0312576785639921
0.0884622304460098
0.0885682636077919
0.0306946009376895
0.0300853419705136
0.0268200435506476
0.0263723360111731
0.0258502554516009
0.0252369684338501
0.0233787057307115
0.0232117503014375
0.0228709439974722