/*--------------------------------*- C++ -*----------------------------------*\
| =========                 |                                                 |
| \\      /  F ield         | OpenFOAM: The Open Source CFD Toolbox           |
|  \\    /   O peration     | Version:  2312                                  |
|   \\  /    A nd           | Website:  www.openfoam.com                      |
|    \\/     M anipulation  |                                                 |
\*---------------------------------------------------------------------------*/
FoamFile
{
    version     2.0;
    format      ascii;
    arch        "LSB;label=32;scalar=64";
    class       volScalarField;
    location    "1600";
    object      nut;
}
// * * * * * * * * * * * * * * * * * * * * * * * * * * * * * * * * * * * * * //

dimensions      [0 2 -1 0 0 0 0];

internalField   nonuniform List<scalar> 
162506
(
0.00149779840361559
0.0015521842516383
0.000102987286658247
7.88006862981321e-05
3.92610716192067e-05
9.52643170000717e-05
0.000460204505119066
0.000530881158793652
9.31985029041975e-05
6.34523477169198e-05
6.95894810492965e-05
0.000885927486068909
0.00093696548712357
0.00130190084016583
0.00293193821958113
0.00332149641526721
8.95290226299916e-05
9.28913757216352e-05
0.00132939210933267
0.000677623399221373
0.000910846482450203
7.98739397440884e-05
8.51388975776966e-05
3.87255444269603e-05
4.36014210543891e-05
6.12589712145151e-05
5.67982731273064e-05
0.0057046075369401
0.000106154485983478
9.82012887096843e-05
0.0081358876342313
0.00772447059270716
0.00496188736277608
0.0104496192836408
0.0150001157076632
0.0149413109162729
0.000100603880032027
0.00010981299576336
0.010656911040922
0.0084634171979144
0.000113129465441131
0.000110713041253635
0.00510456160742734
0.00458133128339629
0.000110746506874027
0.00011063051161976
0.00324823865929905
0.000815432356829414
8.70930857669609e-05
4.53256062949375e-05
8.51772463303071e-05
9.1339316164428e-05
5.00791575801715e-05
9.64930745924451e-05
0.00116089147304664
0.00128191763243232
0.000101217883276634
9.7904220410162e-05
0.000863635296353479
0.00214225238829685
8.25009577821843e-05
8.17069440818836e-05
0.000955024243093471
0.000819817213512811
0.00228423129584921
8.06790616210835e-05
9.25359126642944e-05
0.000109623773168972
9.78207597709641e-05
0.00434992997329457
0.0028349403020994
0.0041819613951182
0.00593929840798545
0.00352953143081041
0.00247403041179401
0.00192468876053799
0.00167932194274726
0.00333940931458183
0.00298425106801901
0.000102682797428633
0.000113684754754828
0.00530306599750693
0.00507020288960833
0.00827170778589051
0.000102931288222529
0.000112842907436159
9.99222964681226e-05
9.02205094033657e-05
0.0101040661681314
0.00566184951136332
0.0131024883216205
0.00962088863466525
0.0145277330610443
0.0125323757487858
0.00871250914296869
0.0116667126853859
0.0150003105884236
0.0150014785392871
0.0150016946163695
0.0150004408148866
0.0150003382958283
0.0103851248576534
0.0109425191191817
0.000109774198611011
0.000100687834777624
0.0149430612613175
0.00731802051355695
9.8286604604384e-05
0.000107008842761959
0.0056991158323437
0.00570765070627516
0.000110705734253951
0.000113664444212713
0.00931352306352407
0.00803723188592507
0.000111183928327888
0.00011007634263966
0.00787829393937609
0.00485504331270395
0.000110956960141161
0.000110718774830773
0.00380482573757089
0.00334300300787997
0.000115614924904112
0.000112462849640659
0.00230349820858337
0.00112569290818341
9.69967954987713e-05
5.41724735633076e-05
9.42750611882437e-05
8.76786387040336e-05
4.83543791177221e-05
7.6418771639928e-05
0.000744113810816453
0.000702626098995029
0.000112255958318397
9.67026909783659e-05
0.00131388606418288
0.00219432433264947
9.34313973632337e-05
8.75990136092627e-05
0.0027192148029994
0.00373572782972335
0.000107805767271432
0.000106072912787327
0.0035157602835468
0.00824552194429621
0.000106405733244248
9.81114102426195e-05
0.00480106874029578
0.00691884642936412
0.000104860804083189
0.000102388887812055
0.00802706694548175
0.00709635701580503
0.0110141457012663
8.65932506764994e-05
9.60092446594053e-05
0.000105912798702582
9.42711120319513e-05
0.0149278965582486
0.00818188413628112
0.0150011153732652
0.0150007007327394
0.0150003450312602
0.0150008111190348
0.0150010936058967
0.0150004693833781
0.0134232035596588
0.01419884658735
0.00869009362940964
0.010453992015078
0.00703762257418329
0.00489609719742006
0.00126312540686176
0.00278924590112853
0.00312906618536824
9.01386597707929e-05
9.62960413313189e-05
0.00143554777554209
0.0016888700052808
0.000103017252593404
0.000110804967023572
0.00318637874793918
0.00532176106000491
0.00011097042210768
0.000111898445587921
0.00415783897631637
0.00515540492801134
0.000110579308504489
0.000108169823284501
0.0027614182968521
0.00274994357727737
0.000105268899269813
0.000108592504488475
0.00251820917724959
0.00135780157846138
8.98280136349523e-05
9.46398095076366e-05
0.00138291612733365
0.000725711677159704
8.71368245594091e-05
8.64021224679416e-05
0.000720404283282632
0.000611232844821221
8.03576468675465e-05
7.61404442881926e-05
0.000697413386000922
0.000640356835445982
7.77320393283056e-05
7.31171248825494e-05
0.000815227278008353
0.000587994689268862
5.39888316884508e-05
5.21214325637023e-05
0.000509965470457959
0.000618397514174112
6.46508064047619e-05
5.75187634914922e-05
3.32081662379955e-05
6.77643240664142e-05
0.000603957444064739
0.000540541237750268
7.23233191529559e-05
7.24094076367769e-05
0.000492160562577331
0.000480914080743789
6.0296011223114e-05
3.58895583044201e-05
6.82150288857097e-05
7.44077377189852e-05
0.000384362330760405
7.05372556029685e-05
3.37052373407156e-05
3.5064896289706e-05
7.43905709361854e-05
0.000503877758550969
8.75682404276491e-05
8.46253860575117e-05
0.000561168381290633
0.000968501280413149
8.6517430416234e-05
8.63002410617632e-05
0.00153006004039623
0.00207993029931715
0.000110603883527661
0.000109299327698756
0.00293718084160176
0.00432267100794822
0.000111643076832538
0.000107225796614615
0.00702235802261584
0.0043678336044664
9.51549694686841e-05
9.55649331837542e-05
0.00442218128304455
0.00496044033607875
9.77707584509429e-05
0.000115481612223949
0.00894252569589559
0.0113981397423841
0.000114555176771778
0.000113471431893918
0.0112409343394123
0.00701966802216359
0.000106435212010932
9.44094068604166e-05
0.0149281213182041
0.0147849550610718
0.0132762440050399
0.00587774402313097
0.0116679151411443
0.00941397655463191
0.0122222082413224
9.55658575661643e-05
8.70039135365361e-05
9.01437879187917e-05
0.0146910219833917
0.00536396724823265
9.95847851992776e-05
0.000103669418626564
0.00671407164681085
0.00564623821191721
0.000113321556705827
0.000102799084183998
0.00279481163341894
0.00295215266991876
0.00412946410904549
9.71566786152511e-05
0.000110734408848057
0.000113005655075629
0.00010284425900704
0.00766034393878876
0.00509391623973786
9.10198118957972e-05
0.000831310455562245
0.00235095724072921
8.14042355974378e-05
7.01139015723564e-05
0.00088043477739142
0.00101908637134742
6.37797238747623e-05
9.47446613545674e-05
0.00053194997464855
0.000455060297158497
7.79975304281402e-05
4.00561494169422e-05
9.87572171407481e-05
5.99531271877543e-05
6.4039471571358e-05
0.000927461656350136
0.000680691606561901
8.46166993305132e-05
8.28991586343623e-05
4.37521958040056e-05
3.95216980028514e-05
8.37539317788147e-05
4.57510760580379e-05
8.63678494948839e-05
0.000777717102334673
0.000875649250803494
9.74998117344989e-05
0.000103776323867749
0.00128207855678395
0.00117350428654052
9.25378457026351e-05
5.03683232566411e-05
9.5388256997983e-05
9.68386464784401e-05
5.38088055491784e-05
9.33021357478418e-05
0.00115154198255652
0.00236278600781798
0.000113801612277134
0.000106890857937927
0.00267040516741719
0.00135399801457958
9.44172552497912e-05
9.52176135985332e-05
0.00128776532107905
0.00135003036574339
9.68193425799603e-05
6.47527315181083e-05
0.000712952325672081
0.000422586557289377
5.19330518368115e-05
4.29892515084191e-05
0.00028889706293838
0.000373827920906057
4.75727508112716e-05
4.21570947054449e-05
0.000287814045009591
0.000385456328020038
4.75381658107452e-05
5.36914566964382e-05
0.000513671789600114
0.000622710492611668
6.21238123594256e-05
3.351309522502e-05
5.22780929924289e-05
5.30007317369555e-05
3.82906162015654e-05
6.54305759966114e-05
0.000391767818848022
0.000488246280557193
6.65894720481014e-05
6.2901024306254e-05
0.000864063727314709
0.000419066605303324
5.64640222916091e-05
5.0852644564632e-05
0.000383942058571033
0.000313634605716523
5.87225962179818e-05
7.29379453539437e-05
0.000428197634557738
0.000826109481082428
8.04370036838703e-05
0.000110107805286382
0.000836386130411526
0.00131593342497297
8.93469668378141e-05
9.54971575083232e-05
0.00156084930283476
0.00262163047865104
0.000113727416138423
9.82766762857883e-05
0.00289652567229056
0.00413470066076837
9.60060292260569e-05
9.6579307526191e-05
0.00413528103008935
0.00489650144130508
0.000115130125643851
0.000114693780546892
0.00793504840755975
0.00792058574214449
0.00011501127928679
0.000114997870857001
0.0089441668936486
0.00493980813214807
9.64762856241049e-05
0.000100261380062243
0.00754454683499152
0.00319901220686471
0.00774644921391854
0.00777273401775019
0.0147373990053127
0.011948980540131
0.0105103770289311
0.00879816447766153
0.0115705767043254
0.0134230987982654
0.0110915265093756
0.00476620691965463
9.8527329104114e-05
0.000105249739661495
0.00819970682763402
0.0034173893643087
0.000105877849513473
8.30662901191366e-05
0.00205768900836897
0.00290600299870807
8.69785508921742e-05
9.27777720834871e-05
0.00256247455671785
0.00136889883298307
9.76344039480863e-05
0.000109872333040683
0.00073014400477522
0.000824801154335697
8.52833159158315e-05
4.67748957689784e-05
7.71491320456216e-05
8.44146635729976e-05
3.39701593497474e-05
7.08178354025301e-05
0.000540816813989234
0.000635675444945572
8.5452081856849e-05
8.61134048003561e-05
0.000724838853837197
0.000668572745133751
7.98671717111751e-05
7.57792742905146e-05
0.000586081114253668
0.000545914401576428
7.63946679818104e-05
6.32762766687605e-05
0.000374518137916287
6.72062166763505e-05
3.2713178046334e-05
3.27006868290159e-05
5.57606858033497e-05
0.000389113328903964
6.15273025117767e-05
6.38153653806035e-05
0.000322590179902839
0.000411072080306546
5.45932876132828e-05
5.25680322418566e-05
2.81030984255052e-05
5.04948286076389e-05
0.000424342430398589
0.000488871318606391
5.72575958674106e-05
5.31289184375384e-05
0.000408963661946989
0.000283291265948006
4.34162761037326e-05
4.00492048565829e-05
0.000259867396896383
0.00024588617740421
3.81398499654081e-05
3.92127503919188e-05
0.000250070451560218
0.000184560094318706
3.64079921113474e-05
3.55915279120846e-05
0.000214108695047913
0.000177627165225845
2.96757886032426e-05
3.7344685734134e-05
0.000190472743024448
0.000259478916417396
3.74497700148661e-05
4.28364502733013e-05
0.000295311524343397
0.000342622528582993
3.77648607466407e-05
4.470489338966e-05
0.00032531882994445
0.000277065653903972
4.32864042930982e-05
5.52885612689649e-05
4.28073011120002e-05
7.00554554770486e-05
0.000312027629903117
0.000380613809845823
7.36441792782912e-05
6.7450580662e-05
0.00044853554316191
0.000507037530011531
6.27932779144974e-05
5.64087414295453e-05
0.00044502403513589
0.000432516451524873
7.55641719465848e-05
7.25212705578107e-05
0.000491435264597267
0.000494196728254856
0.000610687303423724
0.000492617112686515
0.000304165442364093
0.000435661529966904
0.000835240686337004
8.29688251367253e-05
6.56638959079879e-05
0.000578048062326608
0.000364043914159794
4.64295279722997e-05
5.11110322756911e-05
0.00046146302883411
0.000754469641082599
6.36760699154577e-05
6.79968053905251e-05
0.000474154494075692
0.00039048575946064
6.02708807549109e-05
5.44103186006755e-05
0.000333861264965001
0.000336786119258498
5.50299420721963e-05
5.30426030759656e-05
0.00049981423346442
0.00095021878263697
7.45118607935605e-05
0.000477644388628182
0.00071426968056003
7.37895713099753e-05
6.30550138342379e-05
0.000583665753459476
0.000505462568074626
6.06681175391685e-05
8.15230579245008e-05
0.000380747521460518
0.000461439126225999
9.74571496464169e-05
0.00010755239726161
0.000651334209264401
0.000663798369296741
9.36347459343276e-05
9.22590219052075e-05
0.000973549111805026
0.00178000745746844
9.22457337474292e-05
9.66535598109039e-05
0.0017297605961451
0.00304844284761147
9.71787342174064e-05
0.000114940292989577
0.00275145928228362
0.00283556009942264
0.000115301617709895
0.000115421763882663
0.00519594701836274
0.00411908083056859
9.69213774975382e-05
9.57627686221085e-05
0.00440126303334795
0.00435109862817608
9.59423873207947e-05
0.000107234768862182
0.00760979112476336
0.00412394010659636
0.000107786611339382
0.000112849367795505
0.00320647980684744
0.00234706299838125
0.00011059322434085
8.33184621086632e-05
0.00187553857632324
0.000897097905917205
9.17602413315568e-05
8.11779175230784e-05
0.000521331815952114
0.000299546017749236
5.48791025180453e-05
5.80968811306402e-05
0.00079172362878638
0.000560318882565817
4.65101918627593e-05
5.6808134713581e-05
0.000797292424287145
0.000585261543308893
5.46506052980853e-05
5.32607525680027e-05
0.000417822403138588
0.000423329546300757
5.47480326341249e-05
5.40196851071463e-05
0.000430747574027574
0.000389117602210547
4.96144399321775e-05
4.82878074094284e-05
2.61105597206711e-05
4.10185083223416e-05
0.000285106815358629
0.000243894662224358
4.25308620977426e-05
4.55203498316297e-05
0.000224925000336064
0.000334853540946416
3.98389799796673e-05
2.46691907487411e-05
4.25923161374927e-05
4.49143161859377e-05
2.66091538916427e-05
4.53852700019348e-05
0.000428823317291279
0.000443188290892176
5.31995054717661e-05
4.36795857584672e-05
0.000306278744659677
0.000217281214855264
3.63255457801673e-05
3.85232994316659e-05
0.000182472589654925
0.000174433652843904
3.72360666865798e-05
3.26489076785919e-05
0.000129663119733946
0.000127833738154917
3.1973309940907e-05
3.07380140814229e-05
0.000153032738707572
0.000147301820739352
3.34197304245089e-05
2.62057305886964e-05
0.000126175284127889
0.000140572351797214
2.41443674307605e-05
2.97843239596456e-05
0.000168614580736692
0.000213450432001183
3.01990923455375e-05
3.56655379587357e-05
0.000242819296027409
0.000263710327834184
4.08035638033774e-05
3.35254619548341e-05
0.000246791156893334
0.00021228288199618
3.78721553399704e-05
3.89828267730942e-05
0.000204292431837673
0.000265652915404656
4.76834080535669e-05
5.93972933733961e-05
4.76841391395652e-05
7.56724560128819e-05
0.00030358877422138
0.000370150782148946
7.98092407722236e-05
7.31514131976367e-05
0.000430530623840189
0.000575753421552504
7.03254836873013e-05
8.11296523602496e-05
0.000556448761057436
0.000438997477789014
8.01509687197425e-05
0.000373463629977299
0.000294533874586178
0.000184138024309531
0.000124807176156723
0.000137437265987281
0.000211762735794855
0.000223244113138052
0.000156879857207861
0.000281538059089928
0.000472818485035118
0.000651782065782242
0.000108929166135542
0.000110073919654443
0.00096273049830593
0.00158462228184649
0.000113289690867067
0.000113806528039705
0.00159244215735233
0.0016996691609082
9.76785705994055e-05
9.76081641726207e-05
0.00316794837090196
0.00304145686380652
9.69309232875298e-05
0.000115202703902697
0.0030396976182963
0.00171349864865022
0.000111091654475088
0.000112606306478429
0.00129371744661058
0.000935809783842966
9.50944049784017e-05
8.26755520683355e-05
0.000963629861720887
0.000412019265951339
7.35981566707767e-05
7.27972194748539e-05
0.000425897155051043
0.000409498853634146
4.15969294175217e-05
4.91285676453705e-05
0.000463969069785388
0.000444722568136424
4.79921717149405e-05
5.22985022400695e-05
0.000328552128078193
0.000287802515538428
3.93125852743874e-05
2.58780534441844e-05
4.45200049202054e-05
4.64370837862389e-05
2.96957633028005e-05
4.12311611852194e-05
0.000233892101119688
0.000200649616210612
3.53583000597656e-05
3.0223607924456e-05
0.000229987304356979
0.000189711295236429
2.84256527025625e-05
2.34407022660858e-05
0.000175243865442299
0.00014853719378934
2.27981171355522e-05
1.74655313385462e-05
0.000125633083659993
0.000111432664067673
2.22454689506689e-05
1.82577126971198e-05
0.000107135669119407
0.000108734037473969
2.23684940097471e-05
2.32643431668739e-05
0.000107579222521343
0.00010604097300867
2.29344059594247e-05
2.24561325900948e-05
0.000106070029256089
0.000107862313507771
1.82015840056719e-05
2.23978880952843e-05
0.00011727459629147
0.000135122299461306
1.78579691098797e-05
2.32286606739328e-05
0.000154934350278067
0.000188850208931065
2.5358287056819e-05
3.08819685181706e-05
0.000212662502706384
0.000181766282676328
3.07712545884055e-05
3.298654751919e-05
0.000175129914747384
0.00016063672678493
3.893861743007e-05
4.30086321723192e-05
0.000196562893615426
0.000204858594002262
4.97790505081012e-05
6.12813508521818e-05
0.00029340763598816
0.000348824861242068
8.32327656010401e-05
5.38970638977811e-05
6.98266133364989e-05
8.08573206129917e-05
5.87392142079539e-05
9.37400873529616e-05
0.000449188796833259
0.000551780074521032
9.5811692201858e-05
8.7534971241645e-05
0.000419646193317033
0.00045474755497854
8.08885614755583e-05
7.61971922189792e-05
0.000495975492465171
0.00057056031889283
7.95981654166219e-05
7.68524904475653e-05
0.000571170902231105
0.000522121315393546
7.24903638189115e-05
0.000507835415481743
0.000360837582203305
0.000410940252105185
0.000383195699254437
0.000434756330114478
0.000508614962403675
0.00062670401099351
0.000111650359982282
9.79978820485814e-05
0.000761013724933677
0.00105699366878702
9.56937653239162e-05
0.0008160748972144
0.000766852794159172
0.000720782331650941
0.000944549750936977
0.000110153597450827
9.55789904656437e-05
0.000977308902414137
0.000973143840992164
9.27821712788663e-05
8.84754914849917e-05
0.000949066365665335
0.000595075259123348
7.66646961313517e-05
6.59903160848234e-05
0.000713601455552539
0.000639909709487474
5.96328773264628e-05
5.95951976226932e-05
0.000727300708947354
0.000593431118974643
6.46358971435487e-05
6.52941724322974e-05
0.000429503716372056
0.000345242729875925
6.1431706727832e-05
5.35183886945003e-05
0.000332305068534114
0.000304342648083682
5.12121227803849e-05
5.02332849987279e-05
0.000255788188414738
0.000220487937309779
5.84207987960246e-05
4.91036650471319e-05
2.98475158800945e-05
4.30333108190759e-05
0.000216281921590722
0.000181945677378971
3.6237381500522e-05
2.86861287416103e-05
0.000196973642320662
0.000190383838318226
2.44327011077777e-05
2.08148842634228e-05
0.000129822005265656
0.000145679135561009
1.61708204845054e-05
1.79037907951951e-05
0.00013279031544122
9.6976490481338e-05
1.99252460074596e-05
1.60150953743633e-05
9.71038842749567e-05
9.47728248397744e-05
1.92199843198266e-05
1.67027370418302e-05
8.56269345903323e-05
8.06175090731724e-05
1.90401936894149e-05
1.69360005824247e-05
8.34831018744874e-05
8.96924872276238e-05
2.76057871541876e-05
2.08005260355045e-05
9.73992463395044e-05
8.18276392726972e-05
2.49178048554947e-05
2.61386946234817e-05
8.70287226716039e-05
9.39976940879977e-05
2.98344789196791e-05
2.77840480826411e-05
8.96274103446128e-05
8.61811948516822e-05
2.08823444601077e-05
2.47503856175683e-05
8.13186881481286e-05
9.26562009093618e-05
2.03052043172503e-05
2.29683673816139e-05
8.94397995398427e-05
8.31576105524144e-05
1.65462985621963e-05
1.73052864719764e-05
8.31033029272486e-05
8.75446304089911e-05
1.70387318801389e-05
2.06536853872982e-05
0.000102253140398212
0.00010942517323725
1.66165319270651e-05
2.0356579649551e-05
0.000107062830010888
0.000146087044665915
1.86418239313026e-05
1.78359400410184e-05
0.000182745043149081
0.000153792265354218
1.86631175896456e-05
2.08087767988328e-05
9.62614025477722e-05
0.00010212982331605
1.57576708674595e-05
2.25053507229041e-05
0.000104115933749213
8.96550710748569e-05
1.81094927461504e-05
1.78537648441491e-05
8.16888900201635e-05
7.95928898967888e-05
1.67223184205143e-05
1.96859605445456e-05
9.02265391146905e-05
9.60675086700702e-05
2.07963872880824e-05
2.487512583897e-05
8.48155611921728e-05
7.92174951257092e-05
1.9587108694452e-05
2.51733230058784e-05
9.49701740854019e-05
9.80484174628644e-05
2.60038434552985e-05
2.46562222277028e-05
8.74924027449638e-05
8.88604598260974e-05
2.60234781746497e-05
2.08528558202413e-05
0.000103806390318516
9.40364063108704e-05
2.10829547206266e-05
1.63215707970268e-05
7.89701880781655e-05
7.91875741187164e-05
1.83426367129058e-05
1.77144341384321e-05
8.82109859032402e-05
9.60458366599569e-05
1.99264157552184e-05
1.56395996568946e-05
9.13588173010907e-05
8.88964624971437e-05
1.97542186667264e-05
1.85155189293683e-05
0.000126978318145595
0.000160750428733534
9.15497788496978e-05
7.98442286502222e-05
6.10014486540913e-05
5.94229680327697e-05
5.97096264189576e-05
6.74109976167997e-05
8.71990426206768e-05
0.000126571873123577
0.00024830881263278
0.000334312406080821
0.000498990972420488
0.000653301696791815
9.51489996806933e-05
9.20632417792316e-05
0.000668920027229052
0.00055546228744166
0.000100827393986661
8.19087273176761e-05
0.00049340053413754
0.000429910689881593
7.2730366968741e-05
7.0076415236198e-05
0.000460643691384138
0.000472217619001011
5.75395363192084e-05
5.61346190259124e-05
0.000519688969515039
0.000410033707656286
6.17356180105203e-05
6.59677665796132e-05
0.000358334565012006
0.000297305279457322
6.49488863100611e-05
5.75326149359447e-05
0.000266697914673453
0.000272660090369028
5.663492231894e-05
5.23353750393164e-05
0.000212332774334684
0.000197541633992138
4.85470284833764e-05
3.41842800442083e-05
4.49700065273914e-05
3.97933422805841e-05
0.000167947631833976
0.000185797360467211
3.07740642819381e-05
2.28806687811565e-05
0.000154409773806294
0.000166634149403274
1.92067242934923e-05
1.96930702591182e-05
0.000119736253326194
0.000108165139519305
2.18913109144584e-05
2.15487450371993e-05
9.82610424617167e-05
8.37316550320415e-05
2.34798142434028e-05
2.27342641600214e-05
7.51841592902723e-05
6.95195202621881e-05
2.25739139504436e-05
2.29180915479964e-05
6.06055925346193e-05
5.42742733626492e-05
2.42109332678906e-05
2.39691894381906e-05
4.9705298773116e-05
4.5389050569555e-05
2.31960085040662e-05
2.1013759540341e-05
4.31110643105599e-05
4.0141942670144e-05
2.30371415360396e-05
2.46654539348997e-05
4.05357710578895e-05
4.03343145576067e-05
2.46639504184173e-05
2.36986465849687e-05
3.99142493149612e-05
4.12841490062304e-05
2.2699914792201e-05
2.3371890080385e-05
4.19552356660754e-05
4.54308024237651e-05
2.24852669116359e-05
2.50754496110201e-05
4.99436240069935e-05
5.56048013363075e-05
2.38793674662403e-05
2.28635988361906e-05
6.15687949503429e-05
6.6780873399836e-05
2.34087742887561e-05
2.40275236517578e-05
7.65688402102132e-05
8.60595157508184e-05
2.3460694459859e-05
2.40305255528517e-05
9.38177917002139e-05
0.000120104084252959
2.33357920777326e-05
2.20822242128446e-05
0.000118129328067071
0.00011684879536784
2.17062328383075e-05
2.24549594714078e-05
0.000149319504015394
0.00014225687403651
2.85079996758393e-05
3.6219154338736e-05
0.000141277880341824
0.000153249196573917
5.12768717407517e-05
4.90906405232768e-05
0.000173723510421638
0.000182908419735128
6.39013078858787e-05
5.32893162701082e-05
0.000223640172429798
0.00025135914034886
6.21419442930777e-05
8.31572500312568e-05
0.000365427601263066
0.000469809382275721
9.54510311843979e-05
9.11151210826743e-05
6.1431415489169e-05
9.8640805574725e-05
0.000618134630074016
0.000756282336312863
9.41145719784738e-05
8.92491374452295e-05
0.000689535171340279
0.000667206319271924
8.33483988221142e-05
8.07597227380067e-05
0.000591199494958634
0.000678575124258266
9.22906645561885e-05
8.08928070138888e-05
0.000732800169132034
0.000958735289823019
8.141934566801e-05
7.12051686935812e-05
0.00064126858229042
0.000650498165845055
6.57818117879999e-05
8.70953987677567e-05
0.000560942487608087
0.000786456955902482
8.61356467486315e-05
0.000110741646750035
0.00120815044505741
0.00109790526223852
0.00011699482935107
0.00013977386977648
0.000968553198246633
0.000852638547235011
0.000143609296386313
0.000119848197483047
0.000573468787808567
0.000532851913722328
0.0001180761559419
0.000108057004063267
0.00061426984584968
0.000430085780367954
0.000394786568086142
0.000431370022981159
0.000548603584984784
0.000107513816174853
0.000137653988231799
0.000817840547165609
0.000874464152175164
0.000117602405982714
0.000103922954493365
0.000862883886913773
0.000604282638242151
8.49190475663031e-05
7.76093704039859e-05
0.000430880203123177
0.000449084499115679
6.85298091770592e-05
6.11404675016058e-05
0.000429256902446064
0.000477398120123998
6.03333673266717e-05
6.90981314119058e-05
0.000494413138432999
0.000382111875475107
7.59706147270764e-05
7.48866420973542e-05
0.000342732297069613
0.000285201674237959
6.78405031926317e-05
6.81939827506066e-05
0.000317476171130871
0.000225780603245269
5.86752787350783e-05
5.42251469012105e-05
4.35012078813812e-05
6.04987404663878e-05
0.000221365189142036
0.000171953462371479
5.4936482577334e-05
4.79312369299563e-05
0.000186108317203283
0.000182211135494485
4.86239212580172e-05
3.63503596120447e-05
0.000100588059071148
0.000113202309676418
4.83789706907625e-05
4.91309382903931e-05
0.00010659440046346
9.59000088118075e-05
5.13556800202719e-05
4.53059434495346e-05
8.07541468299966e-05
7.8525674597754e-05
4.09258084877655e-05
3.81933557306313e-05
8.16044038696734e-05
7.83813946672602e-05
3.84791547805145e-05
3.71354766555255e-05
6.932003478028e-05
5.43347331354449e-05
3.54270822336567e-05
3.52473474049456e-05
4.48494745099645e-05
3.83430514330504e-05
3.32023163176017e-05
3.14909060128684e-05
3.4775345504468e-05
3.26889929476315e-05
2.94715112814312e-05
2.89024617572103e-05
3.15580713620797e-05
3.05546008881495e-05
2.74247867623162e-05
2.74660410232748e-05
3.01718962031795e-05
2.97076097834562e-05
2.62999875811481e-05
2.66032614528867e-05
2.97536572458909e-05
2.93419985912425e-05
2.65110402960502e-05
2.6304437702689e-05
2.89013237497196e-05
2.87284280412762e-05
2.73346866160095e-05
2.75788477349286e-05
2.95597522240549e-05
2.95238477606797e-05
2.73345690439059e-05
2.71113910187109e-05
2.88370422488956e-05
2.88896906460173e-05
2.7056535615606e-05
2.71126177665716e-05
2.92921479695937e-05
2.95402411138119e-05
2.63553977214192e-05
2.69723734591213e-05
2.90077401398472e-05
2.9430359724312e-05
2.75288733827935e-05
2.73335901893746e-05
2.98355447790686e-05
3.06152118698051e-05
2.83793382954138e-05
2.82333943577731e-05
3.09748892044218e-05
3.19525733579041e-05
2.98144257082587e-05
3.0496721748913e-05
3.31810064393373e-05
3.54383017874187e-05
3.25543172852022e-05
3.38653655985745e-05
3.90961166245166e-05
4.56658352899785e-05
3.61814237219801e-05
3.67813397564527e-05
5.55333284378415e-05
7.14675609626772e-05
3.89405352370768e-05
4.03752204298693e-05
8.08775487052074e-05
8.654454428122e-05
3.99723330064426e-05
4.30119285706702e-05
7.97962559253185e-05
8.46912489409466e-05
4.58538766344092e-05
5.23065663764943e-05
0.000106577106296704
0.000117097525047951
5.31491405248905e-05
4.22924584724101e-05
9.5449437406873e-05
9.36249761500221e-05
3.26844843049167e-05
2.94066868501057e-05
0.000103044437021532
0.000101412576189867
2.53920212450552e-05
2.66223615721638e-05
0.000108477282046068
0.00011254962201558
3.14085827112886e-05
3.9156606183713e-05
0.000108500293681149
0.000100793925620064
3.72362912872672e-05
3.2506253313801e-05
8.12930214861536e-05
8.0636288084094e-05
3.74636087619639e-05
3.16283701857702e-05
8.28345898171509e-05
8.07620167461822e-05
3.20503092142973e-05
3.11896857248677e-05
6.93307681556852e-05
5.48687529448171e-05
2.92819794232174e-05
2.90003887340246e-05
4.4018479343191e-05
3.71388705292567e-05
2.67773180951635e-05
2.6159486486662e-05
3.32873133877359e-05
3.07230073790884e-05
2.43155115610185e-05
2.41775508098349e-05
2.93328240083556e-05
2.82455820076148e-05
2.26189224480336e-05
2.30165490819676e-05
2.78243047749858e-05
2.71594117552994e-05
2.2076032293484e-05
2.24387771387117e-05
2.68273550928953e-05
2.63668624870122e-05
2.20015672687187e-05
2.1389382095702e-05
2.67780100662001e-05
2.65535328848182e-05
2.19610921713128e-05
2.21034187175193e-05
2.61143912558207e-05
2.60729154134515e-05
2.21409118921488e-05
2.20470966390638e-05
2.66758365280651e-05
2.67357480347023e-05
2.22395362188331e-05
2.22975374939798e-05
2.61178684799101e-05
2.62754090256758e-05
2.14916759470856e-05
2.15872902912093e-05
2.65896307259207e-05
2.69018982665229e-05
2.16102858632432e-05
2.13361951730674e-05
2.69462143758263e-05
2.74130143787814e-05
2.24543421753002e-05
2.20918438525039e-05
2.78345928714559e-05
2.88479921390148e-05
2.34734298473735e-05
2.35822547370223e-05
3.01188028638492e-05
3.24879456293102e-05
2.54748273293897e-05
2.63486727561623e-05
3.62610909824135e-05
4.28190645425701e-05
2.82660942500844e-05
2.82257941540275e-05
5.38014555317198e-05
6.68900847043776e-05
2.98564218551677e-05
3.07840947521275e-05
7.78193709186645e-05
7.87920852096743e-05
3.02933582376904e-05
3.59499412523388e-05
7.99747053173821e-05
7.82949631832454e-05
3.24631083228306e-05
3.06029780011027e-05
8.1192906370309e-05
8.03661522129988e-05
2.6366421683337e-05
2.71182371396352e-05
6.95397620017591e-05
7.01780052185904e-05
2.65756099387106e-05
2.50104310187629e-05
5.32260677946576e-05
4.67233166804063e-05
2.52898319305305e-05
2.3478185206957e-05
3.58734557433646e-05
3.39601576646516e-05
2.32691711458789e-05
2.12854234306431e-05
2.99387342597305e-05
2.92393868536085e-05
2.16660742435835e-05
2.01248995150183e-05
2.76522213280076e-05
2.72518587533513e-05
2.08719707293046e-05
1.95652337237885e-05
2.64696357251346e-05
2.66965460906417e-05
1.9955220244648e-05
1.99608567427925e-05
2.62273857606342e-05
2.58347174794743e-05
1.98747288819653e-05
2.06010939339582e-05
2.54815560541525e-05
2.6433740407239e-05
2.04470013432829e-05
2.02954342504476e-05
2.64453541307715e-05
2.54374497366334e-05
2.05688846166773e-05
2.049724418954e-05
2.55065068517226e-05
2.61140168643554e-05
2.02868987460236e-05
1.97297216799492e-05
2.62069013384584e-05
2.58086660829816e-05
2.03045210193465e-05
2.07906009066962e-05
2.65586357777191e-05
2.68353782924473e-05
2.02182561855695e-05