/*--------------------------------*- C++ -*----------------------------------*\
| =========                 |                                                 |
| \\      /  F ield         | OpenFOAM: The Open Source CFD Toolbox           |
|  \\    /   O peration     | Version:  2312                                  |
|   \\  /    A nd           | Website:  www.openfoam.com                      |
|    \\/     M anipulation  |                                                 |
\*---------------------------------------------------------------------------*/
FoamFile
{
    version     2.0;
    format      ascii;
    arch        "LSB;label=32;scalar=64";
    class       volScalarField;
    location    "1600";
    object      omega;
}
// * * * * * * * * * * * * * * * * * * * * * * * * * * * * * * * * * * * * * //

dimensions      [0 0 -1 0 0 0 0];

internalField   nonuniform List<scalar> 
162506
(
1.03451195957008
1.07662263264005
11.7856350883193
12.4495954527316
16.6335714023666
14.2585703139416
1.59027213132166
1.21832528719463
12.904012790148
13.6380659289728
14.186124536804
1.1088176426062
1.1113165920128
1.01921540870311
1.00297992945435
1.00607039062778
13.0955832779851
12.3548788797735
1.02202862744584
1.46606869275418
1.66572410523047
13.3401689927167
12.7729296118939
16.5121417509501
15.9606933534467
14.2447932295383
14.3964001573574
1.00632420411785
11.8143756299716
12.5091827049826
1.0024110137009
1.00026622813584
1.00199734400855
1.00002296824328
0.999894481069875
1.00379899894352
12.2940992933233
11.6840030524511
1.00902060306769
1.61901910882553
11.672997432564
11.6196993849039
1.47102061406956
1.67965581491276
12.4313224367097
12.0560065057808
1.13995994881076
1.65959346917604
14.5181252668765
17.1148224083192
12.496570918972
12.7377027067928
17.8384608152058
14.9943022026656
1.81332498538669
1.52610763217786
13.6490023636693
13.1535639616593
1.44843073790367
2.41221605764079
13.8170719567959
12.6470113549417
1.60132862456433
1.03328999537922
1.00676617261221
13.9019360171476
13.036124382467
11.6869158227866
12.0024580798961
1.00216328771168
1.00816421510516
1.00253201839889
1.00060265880916
1.00199224259513
1.00655244937331
1.00761001822335
1.1200833335127
1.31298970661617
1.84971924531819
11.9884519786575
11.9532604254372
1.53239983944455
1.00559838965617
1.00179031665325
11.8114411987742
11.6054414404679
13.1762210369095
13.9108967817538
1.00388345990064
1.01000329555747
1.00011782093412
1.00011100812115
0.999955677298715
1.00000192837252
1.00047018840032
1.00002765960661
0.999912170913084
0.99983947406849
0.999860260248579
0.999923117341527
0.999913059974189
1.00004744494695
1.00906680656325
11.6805825679775
12.2896222738116
1.00372058514533
1.00227557522111
12.4965942612985
11.8041479344608
1.00620000283565
1.46887976897059
11.6100200219459
11.6697585101356
1.61850776972634
1.88056829598873
12.7244949437594
12.7292530227684
1.88180610705264
2.02042703583256
13.4199644608143
13.0096079351653
1.80743012744284
1.21735499953876
12.3969388049348
13.5338467435223
2.28593419068067
3.1116622237968
16.2309157911873
18.949041410281
13.5103114864589
15.8230925239433
21.7773421751013
19.4480036229447
5.72828169334541
3.6046485063912
16.825747227806
14.6522840057847
2.33572755350795
2.66058385293756
15.59614579159
14.9065286254318
2.43031640974939
2.66617931590577
14.6605837543268
13.5245929331848
2.52094109501982
1.83661118352875
13.2115017829754
15.2974364343716
3.19405637743147
2.07702488370761
13.2957414893493
13.6020685429389
1.88366940813125
1.01321994064079
1.00525589642701
14.9669423970004
13.9111835135142
12.8154071246207
13.6253564102212
1.00477212347256
1.01060956939658
0.999925170994599
0.999940213524668
0.999911641912297
0.999769573932412
0.99980300623074
0.999922048287608
0.999975908711695
0.999986241225324
1.00050474041655
1.00007371072506
1.00035608131256
1.00213511302325
1.01995870394115
1.00330941084704
1.00433217441844
13.0739494167309
12.3333042212729
1.01948385296574
1.07035676821372
11.7628798067686
12.0304695533792
1.13312037172303
1.67636316338979
12.4187726330641
12.9948431857703
1.80499841575046
2.01897096188935
13.4132756537092
14.6137027921385
2.73500823374358
2.74788387444557
14.6352643038073
14.1965463395612
2.60862184860744
4.38031514975109
17.4532091781842
16.5670894477938
4.19650181303631
4.86903046393206
19.8262556375147
20.3775650028905
7.56518791320429
8.23106330000912
22.4226024913397
24.5387272379281
7.94554400547527
5.9479726586042
22.6293733418615
24.4155488677979
6.83575945886794
8.93986168737525
32.197508485986
38.34732916414
11.0840450925734
12.3820314554565
34.4617085674453
37.3121875324499
54.1381212850936
32.0018438908531
13.9694808171971
12.6386078833661
30.0771580519339
28.5537135926726
12.244555634408
11.8792517778068
29.9721555666
40.5646625332792
29.1483764485336
27.4414275455966
9.20524575900001
23.9757845458581
32.5244571596133
28.6462800103318
19.6722203951967
7.81892574726231
24.4908034307766
20.6068665422375
6.08286318371242
4.32475466096322
18.8775321418572
16.6885267803832
3.199897855911
2.95986636242719
16.0787438617914
15.2883813373889
2.7558252901345
2.07570596145775
14.8633723313481
14.1534853483567
1.98352968242627
3.52580666223954
17.1323339944337
17.1379405177254
3.48581567986285
3.09091936115797
15.336971119933
13.2263776424425
1.69013587676733
1.32003266901768
12.408418841001
12.401425351811
1.32872121888481
1.01034392237804
12.8009993689611
13.6086987876243
1.00482128556895
0.999955121445225
1.00005123967344
1.0010102088092
1.00003226736847
1.00459150066941
1.01696319600976
13.8699302628775
14.9182942042973
13.8559396042636
1.00534248583681
1.01138161539533
13.1299495648892
13.2725958822308
2.09852861640996
1.54314544695302
11.9440083873026
11.9906311066677
1.85635179303856
1.00790274167833
1.00225615060819
11.9725405358726
11.6715594953193
11.579455003912
11.7742794664422
1.00203032253822
1.00591010818845
13.0125232722057
1.03252478741208
1.00643529457741
13.8643168236471
14.1613283686596
1.10204449549177
1.10379130123511
13.4366362304446
12.7321861907198
1.31369743124335
2.01800131944895
12.5954319302331
16.0140905186448
13.5478549979398
13.2671853196868
13.7992790569159
1.16681153316028
1.15138158650867
13.1131163363073
13.4797177963315
15.4106460651302
15.3805359906697
14.4627942332837
17.0622308271883
12.4681534895547
2.0964230110717
1.55147398430417
13.1431947370803
13.6570876001932
1.65305128094155
2.26258088140697
12.7038606019538
17.792061085394
14.9512366632672
16.293415795139
18.9427574145753
13.6840741278831
3.75512908206639
2.36339454236335
13.5186569469609
14.1596720629716
2.592401921378
4.35627060015221
17.2877616177697
17.8695754703655
4.46163893842632
4.48549609728863
17.9414417971465
25.4998625783046
7.22183179110679
9.75644532990009
36.5057860101708
44.8663912830395
11.2439316530522
10.8286787519966
43.1600990537746
52.0919859522477
16.2507541851315
16.1001268689436
46.95539787018
40.674629806361
15.5407681807829
13.9854121163006
34.4361781492974
56.5132978044358
41.2215659453694
43.8617777892286
54.5479817971568
36.0525986350573
15.0805233681179
12.9391714309932
34.7741763308197
32.4201092748699
12.803336564212
12.0704060728326
33.971194402154
32.0832004264877
10.4322964996116
8.9527671472737
26.6986660865041
23.899830310689
6.92378809346055
6.47920246830395
23.807250701131
21.7574002148446
5.71752579199152
3.67187535388589
17.6668669525706
16.8705702452806
2.62162281821202
2.19034460811021
15.6088467701106
19.5022702923122
3.86919555723829
3.73975081813378
18.353172919267
18.333765723819
3.74554145900988
2.04823334240046
14.8214524958168
14.0847841794059
1.91174515184031
1.91592969661998
14.0793628721323
13.2250049838244
1.69043261873008
3.10442806108065
15.3372085380153
13.5831059969744
1.91021898121244
1.25922697448013
1.00128800370408
1.01041976332493
1.0181712266805
1.00081978681937
1.0003075491867
1.00016537022173
1.30022666649546
1.11919417057244
1.35729703016969
3.21761404828265
15.2979870423182
13.2092302414427
1.84654160469981
2.52976415215463
13.5313944072879
13.8231919279244
2.43045993998765
2.47206337691039
14.9296652070413
15.6585119461537
2.76005682844685
2.55229600641556
14.7300961021886
17.168556773837
4.02697630904286
6.29873806221013
16.4061718806268
21.8708687406831
19.6319308944712
25.0733386587562
28.8459014344579
20.9199055258475
8.65680417514754
8.15124992233519
21.0107162362923
19.7414929996014
4.89569935035889
5.97747490726413
22.1123536385834
24.7820697498268
8.62717612217793
8.89706299612974
23.5316431232435
26.0070123055656
10.0167385051144
29.168692354037
33.5296736836844
43.4679897077633
32.4679302343656
13.5294274516275
32.8248346038307
34.4755825171462
14.8065532116809
15.9709682409874
39.0586838128168
39.4440645189576
57.653136414513
41.1131564400731
17.5165253543342
14.9900394318085
36.2257852881713
38.186956219054
13.036130803561
11.8963330097341
42.5460257221536
44.1945742392047
11.7013518746425
11.3353100657044
45.0372901054144
45.3480777236629
11.292993645745
17.4205705457061
54.1898602762193
54.0371519697655
17.2448118687625
23.3491563242418
71.4080047868973
70.0012598866005
22.3448074491021
21.5129027211371
67.1427380846703
62.6352578212595
20.6829251810479
18.4593017439163
57.2292866345365
50.6729514655659
18.5464639341861
20.9521339763436
59.5348166610622
47.0136125635344
56.0141271450661
37.8577859617505
15.9107820803354
13.1899988779388
36.4490215686608
40.2649127521842
12.3539579520592
11.2925047543142
38.4664409303169
36.0895083963852
11.1352626546554
8.26559922465635
30.449018133715
27.8445453114969
7.59303799124033
5.11682127564602
3.31856755191582
1.67695753101577
1.78023566015137
2.29299642955385
4.54837949740805
23.4465183418872
22.5422361318815
4.70012005079764
4.457820414747
24.4092597679202
26.6804779985993
4.93948713670762
4.90119315977448
26.0805985033412
28.2895008717591
7.48795433670643
7.23711688739409
29.0031160444461
30.3148540447803
7.14965778724059
8.75551154992758
33.1838503936638
30.6037220387254
9.06133238266326
7.05128308655787
27.3166941401172
4.74708241199992
9.43925675684189
30.5869070824497
38.1763394177545
11.7932838352263
11.1791682032202
37.0490916481146
31.2546831810829
7.7448300603057
4.84596261453266
25.4126270549523
25.6192822201309
4.79473662964614
4.82562504630689
24.6200002363631
22.5845799112906
4.6921033259247
3.97864737818282
20.680969182333
20.6445266350372
4.00331939613622
3.88740869157092
19.4683318200119
15.5074325812718
2.12247129001015
2.12948037071194
15.4929358339279
14.8127189377064
2.05690997960552
3.76001680702059
18.3120063832693
17.1300901685027
3.50282642043592
3.53834262889832
17.1283023524637
14.1431000436161
1.99326010786153
2.67845101050762
14.6655903103332
15.2818611219005
2.75806742467419
2.94220320263825
16.0348075831844
16.9463076299675
3.51370454702375
4.74528713899318
19.4353683939475
21.5864578092997
6.788758105758
10.043576459698
28.8417565458125
31.7879860147364
13.5131665988774
15.0203870113687
40.8202029272023
43.2491439814355
16.797176325725
16.4156942993001
42.3817613842388
47.1531036304305
20.7874976213746
20.8367854171636
49.8184570424848
47.535735845134
18.0412181735124
19.6511038273989
52.3307523877527
61.865127862794
85.4117311824691
76.2922111494873
27.9273234632887
30.6900547693975
78.2892962988816
71.3668381317773
28.6164899454398
23.7696282616755
68.0227619639058
85.5397936880235
55.5441293927548
49.1746198437373
73.474698596295
53.4717578063108
23.5459135686449
21.6423642861625
48.6658563008542
49.2830383060451
19.160159815567
17.670324235768
52.2891268741926
53.329990797946
17.7652402345755
17.5237834861227
53.8435609976497
70.4460104971042
24.2176575418378
24.3457343925103
70.8188142529302
71.1282330306924
23.7028122750933
23.8438867235603
71.1739321244467
96.3631126156985
34.5810060727499
33.8799113022632
97.0487227914206
95.7653909608832
32.5661800127748
30.6831951907865
90.7236606318429
79.0962048231153
26.223466578869
20.5290718838128
66.0004313055352
73.8014497115732
22.9463821746939
23.3488688408788
80.7366469258542
83.7867801041821
24.3298519210183
22.0938197728506
65.3062412871358
49.3644946918002
58.1642376670011
39.2758551981498
16.6797733950041
13.4825367415074
37.8997704946492
42.294967352229
12.6093775990428
11.4101431088464
40.3310652745651
34.3252105736034
9.198841442996
8.64910670330184
32.8792985345837
5.82421922832986
4.05713230921765
3.8428336182521
4.60330646821784
2.65918101200555
2.29881136069248
2.0631443039158
2.22858122975709
1.45130958060247
1.27249413825992
2.34864236099818
17.5293092125945
16.8676963760805
2.23263448349683
2.16980032613262
16.1810396861709
16.1472530056109
2.15325291536393
3.97513000692185
20.4910531238549
19.4159793874814
3.90509709149027
3.8242290315916
19.4295301974581
15.5312528319408
2.18300593634443
2.89738114435181
17.1087349167708
18.0302832497375
4.05209476574115
6.4893167209236
23.3511689540355
25.7298422996091
7.96639399738632
7.661148782261
25.6651589806392
30.3760347524532
8.71352222122117
11.666862779973
35.3628304087753
40.2742552425073
11.9819993447253
16.3073299330313
48.3623496619632
56.2099989339511
18.9528498549725
29.3447538267539
83.4764809884274
96.8266733542469
67.1669203969365
65.936977138075
95.6114103742864
90.4607401604297
30.6101262829592
36.341381070982
105.460639550863
106.087723052782
42.1751024976757
41.2242565262565
107.557228638708
131.39649185858
46.1222701116402
53.1633662915562
147.585278471411
142.413684061107
50.8715793873419
51.9956323118079
141.385564879458
143.797882526911
52.5147182700085
52.3959335413474
143.927173383745
145.01889774382
52.335686213006
52.5722891436245
145.250915021703
145.55702621212
52.766264855519
52.081478198547
146.106372649651
146.239696651356
51.5407429095903
50.2752019634366
148.137621461768
151.469605376908
50.3425383912714
41.433859376228
131.417097809087
96.5425383680284
30.6197640758696
32.1087333976473
108.313106505694
113.732123637213
33.8239656974427
36.1190788817841
120.508871190842
86.6134203868589
24.7217921323038
25.9829808261864
90.243884901494
69.9007676563546
23.193621929061
17.3751805324011
40.7939950447343
61.4852143646057
51.7825153603018
54.4749695882264
65.601700641393
42.8254079658996
17.8980483383306
14.2889818636978
41.4654940181489
39.4151129148572
13.7621957029775
12.9692968329171
44.3947617667997
42.2870633803175
11.5911460164696
9.43662608231303
36.3332245934529
36.5977554210745
10.6975357168094
10.3442300944713
33.8866801404993
5.72111399507845
6.36120970840915
4.98213462600005
2.31397565898769
2.48116348694369
2.20184411761275
4.32148184453899
24.3355472940917
23.2235424446746
4.20935617313188
4.13151243721454
21.9532324771725
1.9144140650796
1.16200150375291
1.14771323370112
2.21397486660541
16.7715888990487
21.5703573125762
4.02312995803176
4.03201780903088
21.7662208922024
19.7543307365057
3.56331056493161
4.47948591637548
23.1043333272992
28.0427238443844
6.9538005805329
8.82403087818513
33.1647655482314
33.8773895090668
10.5075524562898
9.04019535699028
31.3621951791485
33.1523345835934
9.31360428656948
9.79477324629973
35.5300662614893
43.0267439250158
12.5336313980625
17.3009432740205
52.3140290898828
55.2908584472649
19.3624938161643
19.5950159776871
57.3789942771681
67.0144642923453
97.1078216334867
95.2686817358933
31.6822867873786
37.9082371336296
113.882359452839
127.134535938139
48.1593382221733
53.8973977397263
146.721215887167
192.672634045197
59.6763236475659
65.8924112985881
258.22661273196
295.101703002503
66.8614824532202
70.6869055873608
283.720443108127
277.241755634034
68.4140093046215
70.4944818927024
277.801843088715
276.992116091718
70.948115472604
73.67517387976
280.318399032068
284.988623835513
72.8828698197081
72.5340853895669
286.318915453014
286.232493574367
70.9615584543073
73.7438552123205
287.302301323825
289.909336057226
72.8906667726773
71.7520681283165
290.09402840464
290.144543414111
72.7000264945875
73.3856912930345
289.761100018576
289.258317652903
74.7125100287751
72.0995636470493
288.056294458312
288.426013378851
72.8328360313879
72.4645768753563
286.616087062046
284.15912669475
73.084334750244
70.4385835650588
281.258106339413
282.263119609906
69.6552944159536
67.0850537336785
281.871129562293
287.209084404925
67.8222351607121
63.7554306453636
298.841190260758
259.128737840502
62.4460333575415
61.9927951816552
247.733758257131
238.770305164574
66.3044533857542
64.945259179902
232.989446121385
230.223831858749
67.3481820842286
67.0322254483385
227.438052336394
227.757051712959
69.7294065371625
68.7150687756412
228.14901072147
228.374904589083
69.6258247111204
68.4459175579687
227.495792155523
227.750138679056
70.3260419580328
69.3448272366923
227.562455582428
227.719713390039
68.9189088342196
68.2745052790224
227.468810181048
227.229834034502
68.8039843798138
69.2246114929048
225.631017693473
225.169542840327
67.6439430491559
69.2672750127305
225.50956648754
224.943822058651
69.036146821996
69.8478082386045
221.687927356718
220.500599198548
67.17139122083
67.7232046716035
222.219224400855
224.420763547221
65.7297204088694
68.8754035668199
230.973141146932
242.156633999706
65.1556362521506
66.3912022359808
36.5809415640263
23.9413225507525
13.2991118010193
10.5588643602759
7.12124244639172
6.01114872055438
3.57311813578504
2.80093538739623
2.46877830539967
1.85858797718372
1.802295914464
4.13578620017625
22.6569646317484
23.3843164205728
4.32672051876906
4.54519973109302
24.9493481376938
25.1188255262145
5.06176991310382
6.76690761524691
32.4938589347494
30.9133665828772
6.54152956644249
9.70637237670884
38.6437893287257
39.9234443552978
11.5086291362398
9.66682581789889
34.4530951788154
36.6066366155576
10.0071279902453
10.35373579317
37.3056464862578
45.2933262424561
13.4492603807677
19.0724560766392
57.7640918173723
62.8682791058863
21.2161215596547
34.9880319209498
75.5391497124472
105.863558127845
95.3247447515851
123.215801435578
39.7011979838939
50.106896253884
144.620542535829
191.963784868117
56.9163808596064
72.4675565459718
290.987351552773
333.517043904283
73.3944216852059
73.9632184460948
314.915908033235
298.784219713643
71.3035574749963
77.1325274034502
292.084040228795
288.663949265776
77.9788679462256
82.2379614077756
294.689992205427
299.822394379784
87.0211470552123
92.3351665411181
305.720752927933
309.680461039081
95.2358895560853
98.8329619958425
310.500819702996
310.957710867282
101.314843804417
108.59159911518
312.913842740167
316.474385774024
107.253201297874
106.268933963674
316.205921381682
315.76883263714
108.01181841067
106.314751836002
315.345118235279
314.048626046821
106.442361215297
99.9783181257611
312.233654288601
311.95060399459
95.2371958479317
90.8966479150834
309.684930351207
305.091414313128
87.7839471424173
83.4341819642912
297.83674973697
290.372938801086
79.0757912392103
74.3687536568624
285.146083742973
294.745564697506
72.8051781873386
67.9415960793821
311.169546542661
256.589762201814
59.293518258566
57.6932993364287
251.84593209447
165.967805301737
44.0733945184488
47.2774349024853
174.479471538957
189.652381224388
50.5114147336451
53.9121237851139
212.507444255928
129.261105687328
38.3937553902577
40.6172121116567
140.93477949261
93.5892962642738
26.2725626397013
27.3248057922541
98.5022769849147
75.2087548319896
24.0913557798441
24.6091838215032
80.7170115727215
59.0914037540035
73.2857799811646
48.9249855492444
21.0581343962672
17.151881012055
48.0448900850107
51.6551578987228
16.1189690228606
13.4818685658025
48.5275117985639
44.4207907603474
11.8033603890777
9.65100519919641
38.1640718360909
38.5776901053476
10.7730935623925
12.2295860547949
45.7243010054687
43.2678443264816
12.254178876429
11.3733160608674
42.142989412308
33.317931997625
7.09942214448012
7.1147097904317
34.2657820004443
28.4590617220925
5.77122724880124
6.21812549135868
28.4570086824511
25.6360963933071
4.4840260752908
2.57630474179623
18.8750946229352
18.1428549268585
2.48992788183188
2.50548428627494
17.9956675508532
17.3751084472812
2.34165013785101
1.27913536528335
1.47433389762922
2.00334329099404
4.31545037168963
23.7983479023283
25.3020540271606
4.58831335328968
6.27789136251038
28.1432289693471
28.3050439899985
6.16202642948176
6.64559071321947
34.3885311635977
33.4314750755475
6.50627993275366
10.1151746362942
43.6771370632324
41.6939282096627
9.94523477794063
11.7480992455874
43.0870375276263
45.4257627815152
11.8707387262965
10.2939853614061
38.278792796326
38.918383783843
10.8274281299908
14.3197112520208
47.6416483933412
62.7651535027866
20.1226032245848
22.1190662880428
71.3769355889201
90.4912565939335
125.807580522406
101.560923004473
37.2948728020326
42.8287267117945
144.561929310635
173.321198767252
54.309375551084
63.1283403007543
237.045153298263
343.572284035769
73.6281922736064
93.4098256504015
452.272011336653
422.290454700922
96.018257273847
106.305626571491
424.982425594277
504.380203517624
133.47137234984
169.890120737885
641.627014298917
799.866258128487
201.947131970391
215.618321109166
845.505947131766
859.958189946818
225.885481697466
240.996325344083
863.283793184787
867.23903305131
262.741468858871
284.746563664326
865.405792318305
863.844945047023
304.44643792601
318.935450430445
857.908808367374
856.31801903228
331.671773229723
340.487034498715
850.209258225692
851.09346124602
349.578510192265
354.788142065632
847.911913870654
852.07952083414
361.970879011482
369.868088838803
852.50496616092
858.268229747699
377.887073927805
376.874638878578
866.788160981818
869.755779330617
371.471185014381
368.870174393033
865.725481790758
863.934961807164
376.306682570824
380.305192672851
863.58434616032
861.647919915904
373.221302200002
371.925516107377
865.537731256984
862.162759620694
370.190073577837
369.30584008818
864.679745153212
861.222330167409
361.061865328877
352.604612917135
862.896366726411
860.960741693241
342.827284856751
332.721841253188
866.119567186294
867.254999999088
318.833111759211
303.327211911761
874.598044431271
877.078518410266
283.090742622195
262.723568181147
881.438540097469
879.453931340865
242.63590546428
228.627566582637
876.377944529912
860.205909271673
218.17052173157
203.113738503064
810.500983741187
646.137713238997
170.885035302004
136.121359647489
518.053182789055
458.925293983526
111.202026813697
93.6490617913059
459.010601556473
325.537514301695
67.2693691514416
63.2459517872366
298.849905468835
281.399980475367
61.699451974059
58.9728465689341
265.333633222969
335.541850408764
71.2436859357795
77.9776968441675
367.133981654268
408.033604491473
84.1343862097485
100.080723323584
400.148393887276
434.913362538097
121.88485260882
161.075801546446
586.806444845078
704.604137578242
194.588322805818
207.486249548368
741.531679697401
755.883665832205
216.688801399692
224.618494769593
761.954784975845
768.088601352992
239.80025326303
255.733750496737
765.778435072723
767.689612093355
273.509259954678
287.655425117115
761.873082961405
764.013636854377
300.950217979499
310.625800984193
759.215316628689
762.883225770466
320.155079217227
327.95853688648
761.385315384515
765.404397715683
336.086313952596
336.999212098763
764.120425084293
767.038899553276
339.649279805697
340.650427355367
763.903145252841
765.855013213142
347.088603748089
343.152512261537
766.407227368784
767.078191779392
337.205500720523
339.578285023934
770.264252211024
768.470284418813
343.329172942063
344.249004277033
760.550338461888
756.075044967895
337.060189709659
329.396367946116
755.086777454316
750.908578717061
322.382947051347
317.506657859755
753.877754191782
751.053011855855
308.336469008059
300.19023087953
756.61005404441
754.932517704078
288.00232076365
274.728475944971
759.302827675258
756.897587698946
257.489545090156
239.54224858767
756.7958708566
749.492807964182
222.737172491104
213.855211149485
743.623202957308
730.233414382277
205.052788669754
192.957691791737
696.09845535817
582.138599175385
159.983254398249
118.496115289458
425.976614185397
482.755985797771
148.177273060605
174.346850404973
546.368276382767
567.379178065694
184.624360801942
192.573619704205
578.264560214589
582.298041917801
199.67673472777
212.121952902617
589.149085927829
589.354705572858
226.102866389922
237.853678187149
594.550083968202
591.796428081414
248.67521362304
258.598098530389
595.654588053841
591.071983954997
265.721728668686
274.062603623267
594.68894161153
592.353287224459
278.584845310041
284.630269364764
595.726032766674
597.117084443905
292.102928900963
297.97718686209
599.856057135786
606.43499923749
297.089001684745
295.203194616571
607.459735414538
605.211715212268
293.107105273131
296.891926714734
605.061319762879
604.442182349918
300.545218777174
295.742011795755
603.068762233721
605.254428097081
295.00082786399
291.529440497879
602.997573422256
603.270881722778
290.810014933742
283.466446039399
599.737369082059
600.824620229352
276.380778071384
268.169947403951
596.566647197151
600.578214363108
259.398872674898
248.580710421636
596.229046898333
600.359255838576
237.150110108181
224.72583330207
595.012861836824
597.101228090103
212.755353788614
201.135091604127
590.551066924271
586.270005250001
195.120771939879
186.92997273924
575.420891276319
553.537352440982
176.308169070691
149.402165807159
487.663152659791
400.172791615607
127.705930191089
99.8902215393701
355.203408806603
353.713420287124
88.3921648611483
79.080978331379
319.18630108802
311.019601660321
82.9706642812461
90.56240066089
321.735471175023
334.058212216129
96.7170241865415
141.384786588724
426.417974098711
436.048368574412
152.712660203525
170.426505629345
438.6673494874
439.395512858752
189.406792256624
205.807240312848
439.44953961587
441.543764280521
219.060691424376
224.180545932332
443.500087288937
443.505065945955
228.448466462871
226.108413317467
444.4896709394
445.561010862765
226.962052508172
226.314235604571
439.606075089302
436.388254487387
214.364732595427
203.734929802432
435.624025848487
436.08515243813
189.447455219313
171.808967438594
434.496946983868
429.776212416712
152.695466907135
139.747834998284
420.250814505675
396.027443514055
125.672860299705
97.7004056590685
351.483735980461
332.907907521545
82.6473892715464
94.6430192772345
372.403619024661
375.980156997401
87.7463924200295
84.7482277230313
403.156765103103
315.688299466441
70.6614136210265
60.0963677955453
208.493712663378
298.663201807072
70.7119269481776
79.4053640027149
365.476124446628
341.507307902969
80.2594253962946
76.0725263551018
321.627157296283
309.990620653596
75.6067326930297
83.0338272171703
313.651372877447
319.548792389927
89.0338326094295
95.2738791750972
329.35970510339
335.582996618289
103.422341401712
115.319454795898
338.82836927947
339.778921300664
125.717433718969
134.812521634759
339.130248147694
339.064585877505
141.662204083687
151.241067440101
341.199243520715
344.926683144671
151.159296053868
150.472701718168
344.484899010682
343.910911992922
152.162651657949
149.061088471582
343.518842000395
342.640801016185
146.334224488984
136.551307897531
341.467114381749
342.404432985242
125.645716786676
113.81733627849
342.445977369377
341.177851222083
103.399437764433
99.9794076852783
84.3847748948443
80.5452065277851
75.8629167205444
72.9242562129774
63.0096253445947
59.6674725827938
55.5558231310361
53.4039968989471
43.9966338689068
41.9525628127745
38.1370388689914
36.7222407461979
34.0664439545587
32.3798090484444
30.5851813853338
29.2852523770321
27.1759412150644
25.4687754653161
23.5517296555362
21.9149156710393
20.1245253091227
18.3396233758116
16.3063240696033
14.6929298540236
10.2756432527861
11.554241737932
9.23435508452285
5.88452496395792
2.86569013305516
2.03195054988104
1.42540456822589
1.54001481107363
1.62311540348581
2.63619189271807
18.7887878235853
20.7416544999398
3.89643442386054
6.81276096077032
28.9048564262223
37.5528731368483
10.809732322535
8.29727813893375
36.159740311
36.9700469018474
7.00246109117376
6.57111267482305
35.3626926260676
47.4440582714627
10.1398755832436
10.2162578900177
45.6470771130123
47.7106234449972
11.9672432846865
11.3673732985302
40.9903988072237
42.1371427357219
12.2111406361924
15.0311739484552
51.2867753735693
67.7519160099197
20.8207753039078
22.7209207406367
77.3083242564238
100.152640172557
144.753357062821
114.972513545682
39.0402544016356
45.1659537635981
172.720405125521
223.776074294123
58.5418344331242
69.3228437572824
362.276382324281
552.894861233991
84.7857134082615
139.779232108909
826.367524202558
775.621209298228
141.611763467125
170.527963516516
836.373413633022
1113.33521208102
216.477032624911
295.570744441068
1600.87340400436
2127.84966264754
401.501315921655
436.595195931287
2237.81354913693
2241.022939092
436.797783766693
444.144914300772
2196.94249543224
2125.72885611396
461.488798701074
481.510080860042
2080.20446588824
2111.21195181415
471.952942233969
442.951517061191
2160.30232210734
2195.05097044921
416.543237327066
408.928233863069
2219.91861440051
2226.15206523238
405.52122130168
409.248144350605
2231.5318071539
2233.83373498955
408.77873355883
411.322784162233
2226.21628406438
2241.86333507795
417.343942176226
416.244766353188
2247.62387985868
2274.85138575545
416.618784037392
412.811183030532
2265.65427597776
2244.91788859969
413.063671865381
416.898796046076
2246.89119686802
2248.25817913995
413.833344429943
415.533196528959
2258.57236362195
2244.71568293379
415.625260960305
415.621129116827
2255.09829715781
2258.59611524976
414.031543785721
410.313307467932
2254.21532790091
2246.40521635572
412.530999179732
419.374284865407
2220.89803151243
2185.93617405107
444.878602691486
475.547266752662
2141.60639615115
2115.67007394704
485.632178917414
468.260503984668
2165.90133923842
2239.31368697243
455.856097817551
453.941031227751
2283.40362201702
2274.38049452524
454.257669277258
410.947963519931
2150.92167740575
1606.39894670177
297.695275976752
217.319884866983
1146.59208519062
907.857167465139
168.833289003093
144.322841136428
842.9778756301
524.359530339822
83.0472843652849
76.700541315261
448.80226638116
401.034706869071
74.5773523300127
69.426184241928
353.860070800874
529.288675928728
101.307795027538
114.186030953166
620.608418204461
726.700830912068
125.557929297656
149.944974281204
765.850415291218
942.668031725001