/*--------------------------------*- C++ -*----------------------------------*\
| =========                 |                                                 |
| \\      /  F ield         | OpenFOAM: The Open Source CFD Toolbox           |
|  \\    /   O peration     | Version:  2312                                  |
|   \\  /    A nd           | Website:  www.openfoam.com                      |
|    \\/     M anipulation  |                                                 |
\*---------------------------------------------------------------------------*/
FoamFile
{
    version     2.0;
    format      ascii;
    arch        "LSB;label=32;scalar=64";
    class       volScalarField;
    location    "1600";
    object      p;
}
// * * * * * * * * * * * * * * * * * * * * * * * * * * * * * * * * * * * * * //

dimensions      [0 2 -2 0 0 0 0];

internalField   nonuniform List<scalar> 
162506
(
83410.7244447807
83411.36920978
83411.0530178893
83404.8018024315
83399.0518478077
83381.7879490417
83401.5804727781
83401.2671719569
83379.8445157414
83456.1977304868
83459.5029620536
83430.8979651345
83423.4150953824
83417.4163171555
83418.2703810719
83419.0831882317
83419.2669659449
83416.3651818501
83417.9813150764
83420.8411102856
83429.1193853702
83427.4456002784
83415.9240891469
83430.8192399496
83443.7494303521
83457.8239454828
83461.9370555452
83414.5822858913
83414.4604149611
83415.6620302872
83415.3812600133
83414.4714210975
83414.1346328681
83413.4264933453
83413.5041525575
83414.2493170685
83414.4534456581
83414.217096342
83414.0705661292
83413.1426821377
83413.1623317209
83411.995168093
83411.9396864166
83410.6694995333
83411.5759052243
83410.5145987164
83409.0965116366
83406.9469780239
83395.2537733802
83402.9799268292
83408.9031079498
83412.6096576803
83409.8569577011
83407.7339081511
83412.1340712336
83409.7492266841
83407.1021964129
83395.7200987881
83404.9279154385
83407.3967565117
83407.0800084925
83398.4762252389
83404.9105717984
83413.9965452656
83420.8170996627
83433.5276456522
83414.3426598743
83408.7083019159
83421.6594422621
83413.9330069159
83411.0771667521
83412.7610296957
83414.0318962726
83416.6697217793
83414.5773331707
83409.1789814175
83407.3937656315
83409.3433488553
83409.0609244251
83409.03486525
83407.279179163
83409.3203552208
83409.3155796633
83411.0973059289
83415.7966141265
83405.6661637423
83405.589834542
83412.7056555335
83409.6720462659
83407.9386144619
83409.2383809637
83409.732478496
83410.8076081262
83410.4345001241
83412.1434902377
83412.5569012179
83412.1648735873
83412.0456961172
83412.3897388747
83412.4943005189
83413.8298875692
83413.7711415902
83414.3989446787
83414.5329373844
83414.7460940783
83414.541091372
83416.2309215223
83416.4910490335
83415.3659944358
83415.4681026008
83413.0483325538
83413.0722894824
83413.5454097179
83413.5115846655
83413.403187519
83413.9000444082
83413.3973347008
83412.886914748
83414.6183425095
83415.0820978121
83413.0396350793
83412.5310864786
83410.7941771253
83411.8440113079
83412.5214381735
83411.8276880216
83411.7520636534
83409.5148569019
83410.308324083
83412.1808518043
83411.1807857203
83409.6329193611
83413.7681676262
83409.7878801538
83405.0636994973
83404.9271860926
83406.3783350607
83408.649848882
83407.450390794
83406.3330884367
83409.6040906678
83409.4197488401
83408.7072514411
83407.8901288436
83408.1224398386
83408.921305818
83409.1965534574
83409.0260243031
83409.8133590611
83409.7992290106
83409.1707325423
83408.0878473062
83409.2086432865
83409.311917893
83406.6437610115
83408.0515490409
83409.0676737593
83402.8003579731
83405.1775829836
83408.8540500444
83408.1678594529
83407.645189782
83409.3460242613
83409.419107655
83410.7412272125
83410.5829963415
83410.8737158085
83411.0278692091
83411.7286111129
83411.374293375
83413.1770466612
83413.5407407826
83415.3793760804
83415.0979332264
83418.7887361114
83419.6292011075
83420.3553990446
83420.5570558512
83417.7110264089
83419.0857949517
83412.6910714579
83412.3827538222
83412.6143611595
83411.2255440045
83412.2601859835
83413.1180062505
83415.1428101872
83414.5755633775
83415.3289019994
83415.8025749298
83419.3706069012
83419.6578119446
83418.4877984637
83418.3423610114
83415.8360756572
83415.6441365957
83420.4348865844
83420.4529909943
83413.8906234933
83413.215148249
83411.4071919466
83412.7875152404
83409.4489178789
83407.7886962125
83409.3778270845
83411.9412922579
83414.5540087348
83413.5101095823
83416.7732835672
83418.680950625
83428.3867332401
83427.805988273
83428.0071847924
83428.5989037539
83432.6424579271
83432.4626872077
83418.1912728001
83419.3766692936
83416.9274272131
83416.7502642339
83419.1294828232
83415.8285113579
83416.2044185978
83430.6449944802
83400.8172961076
83411.6798365093
83411.1262167792
83413.2533169071
83403.352793025
83396.5860826865
83379.6820456153
83403.9285696829
83407.5253066843
83395.8451215379
83400.4335456751
83406.9736049029
83401.8976628423
83387.3113520788
83375.010623348
83395.1054578704
83398.8086620858
83398.1640926994
83403.3300360127
83404.5351571354
83403.1687582286
83401.6148571768
83405.5829728718
83406.6074724918
83406.2215350097
83405.9646543006
83408.8017100397
83408.4312930231
83408.5421096465
83408.8446953474
83409.2706764815
83408.6792064379
83410.2882830111
83411.2912827329
83410.6931292879
83410.1780175559
83409.5061290096
83409.0451259948
83409.7577803896
83409.9090997075
83407.6684514508
83404.6497313334
83408.6536239939
83408.1984569547
83409.6011395446
83409.513136726
83409.2019831042
83409.6051386533
83408.40238933
83407.0231591612
83402.6595032958
83409.3003951755
83414.3720409386
83410.7528158003
83409.1040537002
83407.2048036066
83409.6440821685
83410.4642180188
83410.5680956513
83408.3306653008
83410.1882337092
83410.5399677207
83412.7961072897
83415.6765957015
83424.2668350459
83411.2396244885
83407.4445884125
83417.7523699607
83412.5731033591
83410.692382094
83416.2782055486
83415.7420453443
83422.6860968933
83436.056970382
83462.0740647923
83432.891755447
83425.2289437512
83457.5774124381
83381.0904006169
83403.3861933588
83403.8622685843
83407.2753910031
83402.2687292039
83384.0019793293
83458.9985344396
83458.1378708047
83431.0416890938
83422.2359532893
83417.7528070551
83428.9562921859
83444.2625623311
83432.1903601698
83399.0200329437
83405.7954896704
83411.2167511541
83409.3952669798
83407.3551545407
83398.5676706969
83410.5207968701
83413.0142607893
83414.9835606766
83415.2395063184
83412.4842261524
83411.1959281475
83414.5523308324
83414.7594067984
83416.5398601095
83416.2623973985
83416.1141670785
83416.5674847858
83418.577095329
83418.7414343167
83426.6141239029
83426.2291901402
83428.8868298632
83429.2477143376
83426.6663842009
83426.3214123904
83441.2420091098
83441.6025866065
83459.4483369283
83459.4043615382
83477.2278646276
83476.8349089846
83452.2867493817
83452.8784273537
83462.694136133
83462.0765125118
83435.1351707582
83436.9870199083
83419.4131388829
83418.5734988194
83414.5855590947
83426.1879302132
83418.2087977466
83413.8719905773
83393.9410735826
83395.4034937201
83398.1146205901
83394.0660556197
83395.2524119274
83407.3297945417
83440.3932824826
83419.2508960966
83423.6948618352
83449.1394626386
83436.7064450721
83419.2841472237
83402.1071684592
83390.3289854399
83434.6917680835
83407.2408426127
83394.5332209823
83395.0532062218
83382.6701409194
83387.0172838346
83395.8938227625
83392.9747129908
83393.1810305489
83395.3616484702
83402.3862551086
83401.3100810082
83400.708624484
83401.0604025048
83405.5468419274
83405.5002702783
83405.4570355512
83405.4106074688
83405.7996140978
83405.486555128
83408.8335736769
83408.6766113421
83408.970641777
83409.0357620463
83411.6817582582
83410.6775374982
83411.31417757
83412.5966274193
83410.9073119071
83410.330624502
83410.0375285259
83409.9178048867
83410.1657747331
83410.5537897032
83410.4015044826
83409.9961603352
83410.497525746
83410.541863119
83410.5122465856
83410.6332318439
83410.9982299553
83410.781975724
83410.5813523343
83410.7923642946
83410.992284536
83409.8567998579
83409.3146282767
83409.6402458902
83412.6694900802
83413.0809084685
83411.3274904046
83412.1412454713
83413.4921103286
83411.1698297242
83412.1840661502
83412.7668651779
83416.8797518134
83417.8812406045
83416.352696141
83420.3503159793
83398.9505432397
83410.6708709242
83417.2112693787
83413.1163558655
83419.3483383208
83421.1746534149
83423.8857803567
83421.935448837
83428.9955054068
83430.4656280449
83429.3228756758
83429.0215658051
83423.3040272381
83425.4417887071
83422.0359503204
83420.1717344573
83394.0452696627
83409.6111017186
83421.1297904343
83433.7232116651
83431.6376366838
83411.9133413731
83417.8411422916
83436.1541946522
83443.6441883538
83449.5763475754
83435.1448210547
83438.1648440479
83444.5941344714
83441.1825155803
83445.1587073772
83446.7372089672
83464.2624495904
83463.6632782206
83485.4840663567
83485.9435786448
83503.9121334169
83503.5980308712
83508.0913164929
83508.419021549
83497.9369652342
83497.5175748736
83537.3413105784
83535.2946101466
83500.5082581576
83501.0748217254
83505.8129079491
83506.5446275785
83480.5267899921
83479.2282728914
83451.7955048251
83453.2876869462
83437.8721564014
83436.6894317481
83418.1269161491
83417.6864616721
83403.6022280837
83403.8601098772
83372.8610808352
83372.6675672229
83364.2196488669
83365.4626628767
83364.4535909698
83363.6090480739
83362.7757457856
83365.8711303719
83364.0847203207
83362.0249971527
83359.1608350557
83357.5595841291
83389.0004792877
83388.0223268277
83380.1714991233
83375.5486820024
83405.636637817
83403.3872652833
83405.9369487636
83397.4019290294
83404.5510285745
83387.789612734
83366.410717309
83369.9930975595
83354.4055419184
83392.0555377152
83366.0126336251
83356.189408614
83425.7351446554
83420.6806930149
83365.2618709492
83370.6701036874
83393.6626277259
83393.3854793214
83369.5582271246
83362.3409518763
83407.6810464191
83380.6587493536
83351.2690515013
83359.3589112132
83382.9943884854
83374.4983659795
83367.2970955812
83368.571087086
83352.5520085983
83367.5689600737
83360.8315390829
83354.3010957436
83353.1297039066
83340.2731677594
83338.5740256625
83349.1651963785
83323.6774581649
83330.50111032
83312.9738323033
83292.8161596053
83318.2917249509
83319.8617458952
83358.3726529039
83358.3094994742
83383.402514478
83381.6599013877
83393.6843434168
83393.2706225915
83392.6467153486
83393.1781794452
83400.7974954266
83400.4890101957
83400.751776165
83401.4288223949
83402.1441959178
83401.3840154123
83405.8940748364
83406.2783211639
83406.808376549
83406.7907528478
83409.9157662663
83409.5248509617
83410.0631113892
83410.2466723058
83411.2328287114
83410.7231075564
83411.6539193567
83410.9910762416
83409.8892002372
83410.8352073465
83409.1228598253
83408.0776447304
83410.60230671
83411.3693878405
83408.3374565925
83407.687986993
83385.26813982
83406.9749532459
83422.045178595
83406.9764889312
83400.9737179815
83426.9358279225
83454.0229760313
83476.3980140854
83477.781287875
83455.4959337846
83452.4507642095
83475.2802985922
83467.9641463804
83448.4820356252
83447.5792483071
83463.7560893898
83461.7092911276
83444.3591617213
83430.5024196743
83442.0563602144
83432.4918684191
83432.9947289545
83430.5621779248
83430.6266979625
83433.4391004782
83431.6641292446
83440.4913549272
83441.3217160235
83444.0745319286
83441.8596058854
83449.4515942716
83459.0853260158
83458.1138238753
83454.6576816995
83450.9930978772
83449.8215081713
83454.7594900746
83456.2451682227
83483.0117817868
83480.7978192039
83515.5105544707
83515.1570613332
83545.8437656664
83547.9982317711
83556.6568102155
83553.8662799996
83611.0992004969
83612.4311071683
83597.0387539174
83596.0770617734
83572.103564198
83572.8581907952
83544.7426190666
83544.8279245796
83560.6952123763
83559.7071447351
83513.093043351
83513.8730400299
83474.9654707601
83473.6721189028
83444.3450752222
83444.0574933632
83424.4379397717
83424.9037151099
83408.6988502195
83408.7156229225
83391.2716349868
83391.2902512727
83370.7361674937
83370.4481230068
83344.4091400266
83344.5608841731
83334.1924845398
83333.7960317679
83333.28639164
83334.6947504566
83333.9756701089
83333.1532614638
83333.8987184771
83336.2875382245
83337.3119448711
83335.7116250294
83336.7511333791
83336.5167352742
83334.2655137611
83338.0931688214
83357.6400270119
83350.3705329694
83363.3114933152
83368.0297208582
83378.0382999243
83371.9033974383
83363.7925647448
83352.8322797411
83366.0165062101
83379.2932461984
83379.9085737068
83365.422603167
83359.882074358
83358.6346666781
83379.4915340845
83381.0860403457
83394.0407452139
83392.7998286629
83393.5915131154
83395.0313170932
83395.651005457
83394.7604660698
83402.3535071849
83402.7437352801
83404.0665335781
83403.6834277917
83406.1670587868
83406.8208288943
83401.5844834812
83400.2239636736
83402.7916755766
83404.361336449
83395.8356369319
83388.5700746568
83396.7998522389
83405.3769759144
83423.5967500297
83446.1907141193
83418.6293018722
83424.5272983402
83444.3174578256
83457.6793627441
83421.4370732403
83416.9003931165
83423.4044595288
83433.287788589
83416.2071934905
83417.288307476
83414.2725124558
83414.1020535494
83413.8269765049
83412.6769651651
83394.4443599111
83395.2780429002
83396.3926460014
83396.5984392091
83405.7331221968
83404.9098811001
83414.4284487506
83414.825382624
83431.9226800925
83431.3558038451
83454.9499097725
83455.8449715079
83494.4368693886
83495.4571517011
83551.8847650922
83549.6701010281
83610.0267843797
83610.3204680487
83670.424036243
83671.8662213666
83709.615046792
83706.6162483846
83725.5918144644
83728.7129005972
83722.0725004617
83719.130628937
83684.9388563279
83687.5320055787
83638.1296034034
83637.7389226451
83571.3247966166
83569.7480363708
83510.1845682269
83512.0731066383
83460.3702255069
83460.3653116922
83426.7675412265
83425.9020441245
83405.4751653574
83406.3831253203
83381.6279629829
83380.926377128
83347.1789268624
83347.3441931564
83310.5459797659
83311.4349803904
83315.7860941713
83315.6077183137
83290.4042565186
83290.0060337763
83293.5353087294
83294.3183219381
83303.065096518
83306.9630298393
83306.192981778
83302.3498678469
83276.2111216835
83282.0258468464
83284.7396253017
83278.22749345
83282.7575681462
83288.8785735782
83310.5609982765
83306.3255421609
83310.2643781973
83314.2660198886
83319.02743713
83314.1073444843
83316.9220218995
83326.727041305
83325.320218161
83316.4237868069
83338.0124103772
83338.1217793713
83334.0093729971
83336.7683542643
83334.1543129167
83330.032263947
83320.8529571309
83322.5377887843
83325.1297272688
83326.7106917653
83357.774138121
83357.9890047391
83379.9344589226
83379.4219344114
83384.2114385757
83387.3392528293
83389.527715713
83382.3465179292
83380.4543420411
83381.6383869389
83382.7534940705
83384.6562997182
83383.4155047657
83388.0266502195
83391.3300130006
83372.2175244217
83374.2915837347
83388.4554644191
83384.344836119
83389.3320311479
83391.4609330395
83398.5089318517
83393.0654857519
83399.3911741762
83399.2315152295
83404.0185702261
83407.0741728766
83378.8956694772
83383.7058977687
83384.483281762
83381.1328427522
83381.3994648932
83383.8879549108
83399.5385682438
83397.7577671397
83376.3284351163
83371.9476941346
83373.3189414973
83374.0680278704
83374.4014788454
83373.9324632479
83381.2605124993
83381.0294081819
83387.4299106267
83388.1339127573
83401.3517544412
83400.9720045357
83425.9587468396
83425.6801070437
83444.1597010429
83440.7349950496
83448.7776265722
83451.7699585646
83476.7099618203
83475.2906620224
83504.3902424001
83505.7411866864
83539.9729732223
83539.0404655363
83584.1142418448
83585.2945700034
83629.3303771745
83628.6533387347
83670.5892399326
83671.8934230695
83709.1444301113
83708.2437029258
83738.7760404293
83739.9987578182
83756.723941402
83756.6512670173
83769.6367188138
83769.7541991902
83776.5000710756
83776.0670634599
83770.7099125575
83771.1319062037
83755.3314123676
83754.6730326461
83731.9354773228
83732.3498765607
83704.6313552762
83703.4340281944
83664.5538762196
83665.2618762201
83621.2532069169
83620.1153891164
83574.4503724378
83575.5747049698
83532.4299766412
83531.4790556418
83491.172755645
83492.0041831495
83462.3095090079
83460.9777144116
83438.9697828612
83440.0924826025
83418.5395382662
83416.2451213337
83408.1467232422
83410.9952720091
83418.0101682197
83416.5665564846
83456.4473277107
83456.3925918046
83475.7597646943
83475.8373650904
83510.3611175814
83509.9530344363
83541.3732749767
83542.2296435732
83586.7109738792
83587.080286042
83620.9994091963
83621.6801978713
83668.0592675128
83668.4251382603
83695.605648968
83695.2249185085
83721.1364141692
83722.7262656184
83739.9437383031
83739.4590071947
83758.8093741315
83760.6128153033
83764.2649330963
83762.8015548054
83751.9258204601
83753.2087250651
83743.4241601903
83740.9351903812
83727.9669128055
83728.6040449058
83707.3909207337
83706.6665015499
83666.2743716048
83665.7087210889
83635.0011191879
83634.9283962506
83590.6469715361
83589.672977088
83556.1109550925
83556.554090355
83517.3703065095
83517.5866458601
83492.8601479924
83492.1939637789
83449.2637196645
83452.1652474832
83450.4053190633
83454.8323384828
83452.3882098712
83451.0546498602
83445.9636792491
83431.8789636965
83410.6743036232
83386.4080915067
83371.5896313754
83369.0384508943
83377.5905242652
83366.2590705724
83361.38440015
83360.843737512
83363.3268483812
83363.5166462015
83323.9600278232
83326.4470158799
83324.2385464095
83322.8926567963
83333.5731463491
83328.0739439583
83369.2554114536
83363.4819013719
83367.7044347885
83372.283278039
83373.543825029
83369.5769079099
83374.4615559601
83379.8411837563
83340.6411440506
83336.5469377349
83337.9192543278
83342.6095639284
83342.3145329093
83338.9201266049
83334.2233145994
83336.5914409543
83354.7145022734
83350.2221403608
83347.2129071745
83348.9582355023
83348.1659698595
83346.8541243804
83350.4713110768
83350.6101730125
83352.2312345397
83351.0215512121
83356.965825511
83358.0429986371
83364.8635818125
83361.6122378544
83364.5146505999
83367.30301111
83381.6856671585
83381.0272166609
83397.3784452561
83397.1608817086
83417.2893917683
83417.029522994
83444.8013741283
83446.341459133
83485.0764298163
83483.2937861448
83537.6706446507
83540.8760194189
83598.0470384635
83593.9471567178
83647.73069405
83652.7933264345
83695.3774884431
83689.8958965294
83724.6228241405
83730.3299872679
83750.0013933003
83744.1265515041
83757.6843558934
83763.4624094951
83766.6058465742
83760.9400434922
83755.4645198528
83761.060836854
83748.7725014787
83743.0947183708
83717.5549085963
83723.3925403043
83690.3505419708
83684.7985146921
83637.8326260888
83642.6346528167
83587.8820630025
83583.9953488297
83525.0153890095
83527.498667333
83474.9506343591
83473.3519006119
83431.7371794509
83432.40059489
83405.7599474267
83405.2124846278
83387.4011272324
83387.4699908948
83375.2984056901
83375.2054792606
83368.9864330839
83370.7742666618
83398.5123736726
83395.4236417583
83394.6245861296
83396.1810186799
83348.8028237587
83347.6246787966
83298.7733769383
83296.7940618544
83248.1737675677
83251.8092981042
83276.8982499472
83275.4706487837
83248.5830710818
83249.6391455232
83265.2811772432
83265.9714625081
83252.179590366
83250.3929762778
83262.5843659969
83264.2084701541
83249.5566210822
83247.7952388243
83260.3114131024
83265.8751894481
83269.4662221973
83262.8955507681
83267.5542915396
83274.6746401792
83278.5168142925
83272.9325418118
83274.9380685847
83276.6979823353
83294.9303851571
83290.1542593563
83292.0895729763
83299.2890876577
83299.0280747692
83294.0148394001
83294.4653386575
83295.3263755279
83315.4336556064
83313.1970923331
83311.3329237791
83309.1526039347
83305.0803632646
83311.9992713056
83296.886846884
83287.630419791
83287.2954798927
83290.9702842685
83295.2331555859
83298.8887392143
83295.982152818
83293.9106820103
83289.6851540327
83293.6668735271
83327.5376415616
83325.9924829493
83326.6294763595
83328.2467973376
83359.7537047527
83361.4240553396
83368.4214546729
83322.487171395
83322.0734937114
83325.8922708362
83327.8000368045
83290.6448354455
83287.4525763785
83283.9775283747
83287.4511405898
83278.3694908738
83276.0824012541
83281.8052425848
83276.7995611799
83314.5806746616
83306.3543705658
83307.4521999111
83311.3563784855
83333.9169851837
83334.5189337821
83335.0814254311
83337.8529554928
83305.9773782179
83303.3207131952
83298.2837631116
83302.2909746857
83298.4010124802
83292.9913774515
83290.4713071606
83295.1593519147
83286.8523121995
83282.4571031241
83293.0229291055
83299.8961579905
83291.2223435872
83289.4367729175
83287.0800233304
83287.413370979
83280.9646209631
83281.2161305042
83271.6907918599
83271.3967992381
83256.575203032
83258.0592030725
83255.7777466818
83255.4275170962
83242.8387551421
83244.0494091108
83228.3981340272
83228.1445652312
83202.9676375783
83204.1987919639
83180.442906572
83178.8917568279
83170.3332784065
83170.6329014532
83155.7432525509
83153.4530781894
83137.8836738861
83140.4649502283
83132.9489495823
83128.9634916707
83130.158026939
83134.1111074843
83136.9952740534
83132.0205208559
83134.9806120158
83140.2360867147
83142.8962765554
83136.9253612596
83135.4113962523
83141.8072747465
83140.6180627588
83133.9913534605
83128.358977365
83135.4897213484
83131.6764001827
83124.3878858508
83117.0980487134
83124.598582823
83121.888473896
83114.0667330715
83107.7710992446
83115.5178003247
83112.8404233975
83104.9520037808
83100.1470271534
83107.8002605514
83107.3104246161
83099.2085707576
83096.7702467363
83104.8813816305
83104.0357859723
83096.2983801482
83098.6573815359
83106.4765696066
83107.7632385892
83099.711926169
83104.0705596109
83112.0668672539
83113.4791185075
83105.860126172
83111.8436043156
83119.7154385164
83122.4710937405
83114.9634967918
83120.9306943731
83128.2851037233
83130.3410464383
83123.2420148125
83127.5278579102
83134.1399756312
83134.3052088978
83127.9971161329
83128.0404455925
83133.9747185124
83130.371865849
83125.0824827713
83121.8346904757
83126.8102185192
83123.5814181982
83119.5490239236
83118.0878116593
83122.1612368326
83131.6360524515
83129.0145953285
83146.6398677628
83148.9035114198
83165.9667352015
83165.8121062742
83176.2479907109
83177.7362270613
83206.8206703795
83206.1369588044
83225.3769815096
83227.8785505843
83246.002536061
83243.8088219785
83273.0609386656
83274.5222068484
83308.6264966622
83307.8262364499
83339.9772067635
83339.6522912167
83341.9992634784
83341.7084872446
83303.8952169839
83304.4738462332
83265.4891974972
83263.9039912725
83253.8368559624
83254.4853754251
83242.3138605517
83240.7574816347
83199.4736581055
83197.9644768646
83192.4658025905
83192.5332673464
83182.2915397129
83183.318171563
83182.7188868585
83181.0993388406
83190.8341548132
83192.0026737625
83205.9316684865
83205.2975465161
83216.5589665024
83217.9956750145
83230.5910584715
83229.1708761735
83235.8380636521
83238.4072651226
83245.872663159
83243.4464684393
83245.4853929102
83248.8882631255
83253.8044700106
83250.6161392055
83249.4090048501
83252.7242423312
83253.8568305074
83250.2827344052
83248.6004156511
83250.8071634448
83255.5508691095
83252.4353730984
83250.7274760299
83254.3547941895
83250.8021511903
83247.9616124876
83246.8565722341
83249.4030508751
83254.8482655956
83251.2799195722
83252.837819225
83256.1235763846
83250.963085626
83248.7477428955
83250.6884147575
83253.7888032705
83255.5923940883
83252.555385677
83255.275126952
83258.6756758206
83254.9214723091
83251.8487672454
83253.557419035
83256.6404191277
83255.1688346722
83251.6595479851
83251.2203390643
83253.7809140365
83247.156914066
83244.3065824363
83238.8003381111
83240.4470593506
83228.3097390112
83226.6951166654
83216.023948136
83216.7472782203
83203.7288399438
83202.4065687364
83192.9764132174
83194.1263371292
83192.8393101966
83192.2972904163
83200.482044133
83200.3386231842
83204.6705338635
83206.0358970721
83247.202459924
83248.6117207088
83250.7860099105
83249.0891057753
83256.1021445543
83256.7627383313
83259.7061770183
83256.7972413198
83267.7129731021
83268.8093028727
83286.9251964236
83283.7257196559
83308.1210885067
83308.0589764634
83329.0434078971
83326.658686454
83349.3496118684
83349.0699621056
83364.9813882769
83362.5916499761
83377.3404216687
83378.0895513053
83387.1845247905
83384.4919768733
83390.3419842076
83392.2114744286
83397.7717719449
83395.1630881229
83404.841913562
83407.565129684
83408.730140568
83405.6598600561
83401.9257284921
83405.465888015
83406.5492115145
83403.1233739233
83414.0506898248
83417.8995999859
83417.6296389125
83413.3668494958
83402.0859889904
83405.9128983087
83405.4882408058
83401.7190991488
83409.5374516089
83413.8836074675
83411.9216176726
83408.5937478926
83398.7937857016
83401.3289262872
83398.7304015867
83395.6200314826
83392.9028930529
83395.6091753077
83390.6216265523
83388.9649000981
83376.9419524604
83379.7564864336
83368.4167010853
83367.70859985
83352.7293902699
83355.0558074825
83338.5710846288
83338.8530176798
83316.5984871369
83318.7421753928
83296.9092471397
83296.9842912678
83270.7664579274
83274.1304460368
83256.9714728289
83255.4057389527
83246.1305101094
83249.1751638535
83247.206999419
83246.5467796413
83241.459932638
83243.1785980556
83309.823011016
83307.1462101688
83303.0008040898
83304.3998095452
83303.4185243412
83303.0411716349
83348.5238835202
83348.7348252107
83359.0140314621
83358.3006264708
83377.7821902677
83378.9935254655
83416.5785919218
83415.8690966805
83333.5569046019
83337.0371989573
83386.8450855375
83383.7019637447
83444.7635661822
83446.829366226
83496.5347002787
83494.5955820213
83532.1505109492
83534.4629309112
83557.7370034822
83555.1826261613
83572.3219339971
83575.4552577607
83580.7683651468
83578.1357200665
83581.4072156335
83584.1265577382
83583.7856805733
83580.93615921
83572.6926168534
83575.1469712546
83564.5998993995
83561.8380232615
83537.9010661561
83540.2386275697
83506.898950449
83504.8872198611
83456.2000971262
83458.285587653
83400.1237897952
83397.1396787766
83345.519248783
83349.0872031527
83321.2713312811
83318.6297085712
83314.3761875496
83315.4919988263
83308.8781903393
83308.6335353778
83254.2587155286
83255.4043152682
83267.2823014477
83266.9810143064
83276.1121874727
83276.996249866
83283.2300577167
83283.0560222908
83305.0562189304
83304.6242127898
83312.6807564112
83313.6391983072
83310.5124646421
83310.6741126223
83309.0029358105
83309.1257190913
83349.5621584696
83348.5495858681
83357.5244271459
83357.5656604788
83370.197518458
83370.5908385272
83391.6834145418
83390.888544039
83428.2550961042
83428.7577310773
83483.3955389886
83484.5131938039
83546.0838527514
83543.5022617843
83598.6141373278
83601.9618014061
83643.3831482714
83639.5881962183
83671.4259089234
83675.3518467172
83692.4593880692
83688.4247240688
83700.5606193869
83704.4306030879
83706.5571734066
83702.7244353574
83697.8264004096
83701.6540485148
83691.5092974354
83687.643335412
83664.3120211147
83668.3484648412
83637.5615653357
83633.8263701148
83587.9806539115
83591.4058657807
83534.6452343358
83532.2817830724
83469.9609907576
83470.5862496037
83477.2365906524
83485.1854065115
83495.6107594426
83511.6904069716
83522.6130579371
83516.0209514371
83502.8316235164
83492.5307878202
83477.9260455935
83464.8670270057
83455.7543600794
83447.641336766
83445.3044032206
83443.4070569911
83446.5410528642
83448.2733254112
83455.4096373266
83463.8025805068
83472.3321977795
83478.7459454377
83477.5288161916
83470.3759419999
83447.4562314869
83407.2378616412
83377.429514508
83356.8160207994
83270.7916055146
83268.9552432035
83267.2681123422
83324.1990449326
83313.5259888355
83321.8145671203
83275.3776804784
83270.7236856948
83287.5298703784
83292.3506109935
83273.0151328715
83270.7843744751
83271.4825280206
83272.9772114254
83260.9151819474
83265.7922177482
83256.6015972355
83236.3798530508
83242.8085915495
83256.8078549863
83266.0632453563
83274.6233777349
83269.4572181716
83266.5123091898
83281.6248593734
83280.7668124059
83278.9604465242
83276.9145738578
83269.3590068554
83272.6566246763
83264.4277082504
83259.701097999
83253.0880968739
83257.8872894664
83248.7251257231
83244.7507977981
83248.2896760464
83255.9505066842
83247.0994884681
83243.8900816121
83241.0451045281
83243.3020204436
83232.9557799599
83231.8853037995
83221.5946674623
83221.7842664614
83200.7415462245
83201.6272340675
83187.3409153169
83188.2468540787
83169.3099841663
83170.2430471544
83153.1360013122
83153.6052261967
83128.4043391623
83128.1349895825
83100.677365869
83101.6236201124
83089.4204403336
83089.019216023
83085.1183664703
83084.2389715192
83086.6755728058
83088.2874456545
83124.203796123
83122.932593864
83228.2863299071
83229.4054924052
83371.0595713468
83374.1270746485
83436.7755702782
83433.1929329428
83383.2861571064
83383.2558851813
83252.2400608408
83251.5122010341
83148.6546979106
83149.8702355501
83074.8127641338
83074.29808808
83019.4834474701
83019.6384707214
82978.0413198364
82977.9979743057
82948.6331197939
82948.6398887671
82924.7070453351
82924.7916414843
82909.6083672523
82909.4121285289
82896.7436493986
82896.9288481778
82890.171247579
82889.9824011976
82885.8297835439
82886.0736297566
82886.0875071415
82885.8450043494
82890.4073548061
82890.6211575005
82897.1672174872
82896.956944115
82909.9378615282
82910.1085410177
82925.3407575627
82925.2013372737
82948.9198004309
82949.0122890758
82978.4526601021
82978.4875028688
83019.8990858627
83019.5702316751
83074.7158650843
83075.4357859306
83151.1234272694
83149.8122975961
83253.4927963995
83254.3991100382
83383.3504114106
83383.6820798401
83426.0863878732
83429.5215264334
83358.744639174
83356.1959296812
83213.0547061041
83211.488885746
83110.0044613474
83111.8587955673
83081.9249156624
83080.2691074365
83080.6218283862
83081.6988429727
83087.680235689
83088.1447904221
83100.8576454106
83100.0354928851
83134.5473496281
83135.264150224
83153.3521339451
83154.8539494184
83177.8716928156
83178.8410582753
83182.8617033167
83183.1234821923
83199.7078310983
83199.188566811
83215.1456573425
83216.1682916287
83197.3957567829
83194.9516004647
83173.9334820054
83176.3796254333
83162.7831620221
83160.4631610061
83141.5228126555
83141.5248212125
83108.3488206821
83108.3392419556