/*--------------------------------*- C++ -*----------------------------------*\
| =========                 |                                                 |
| \\      /  F ield         | OpenFOAM: The Open Source CFD Toolbox           |
|  \\    /   O peration     | Version:  2312                                  |
|   \\  /    A nd           | Website:  www.openfoam.com                      |
|    \\/     M anipulation  |                                                 |
\*---------------------------------------------------------------------------*/
FoamFile
{
    version     2.0;
    format      ascii;
    arch        "LSB;label=32;scalar=64";
    class       volScalarField;
    location    "1900";
    object      k;
}
// * * * * * * * * * * * * * * * * * * * * * * * * * * * * * * * * * * * * * //

dimensions      [0 2 -2 0 0 0 0];

internalField   nonuniform List<scalar> 
162506
(
0.0150874387927166
0.0150914149813328
0.0162984837312805
0.016406158135172
0.0167317963950061
0.0165728462147088
0.0151721385759184
0.0151278935671337
0.0164311375659482
0.0158106850865453
0.0153535826317026
0.0150314499907446
0.0150685530714647
0.0150490514963965
0.015013278889041
0.0150111128787375
0.0153245830310382
0.0157351453307802
0.0150449002469642
0.0150920089180841
0.0150561205594054
0.0153412033550493
0.0157499525854588
0.0158004576600971
0.0153758461652551
0.0153291032422658
0.0158118069873769
0.0150103037021209
0.0157516778634359
0.0153092747813397
0.0150027632731011
0.0150029867898286
0.0150132941321192
0.0150007578175838
0.0149985333487355
0.0149980732375354
0.0153027721161067
0.0157509027712188
0.0150006773235163
0.015075759989608
0.0162854799914744
0.0162868555761364
0.0150717891085092
0.0151160553011158
0.0169421921940099
0.0169512059869676
0.0151187271767712
0.0152570881886126
0.0173879875607087
0.0177210767395759
0.0171052313026694
0.0178912163617872
0.0188732844190778
0.0183098456232509
0.0153536602446571
0.0153030179305201
0.0179965997169037
0.017159210643304
0.0152291552634229
0.0153346200898895
0.0172187168688619
0.0164794369842899
0.0151769323264744
0.0150524435448744
0.0150163647423315
0.0153484057735877
0.0158681894375375
0.0158296423971094
0.0153008631839701
0.0150080533709903
0.0150285257837177
0.0150161665248247
0.015005148126428
0.0150106217671293
0.0150288333686195
0.0150320610868477
0.0150755643976991
0.0150740601632454
0.0151496123375074
0.0164186907134764
0.0164364996505938
0.0150885527708689
0.0150133188478147
0.0150029102266032
0.0152981225797384
0.0158259487942039
0.0159353880050907
0.0153536402956184
0.0150018579365065
0.015010553382878
0.0150023448834841
0.0150017030332536
0.0150002022077594
0.0150016848863101
0.0150056210258386
0.0150010580217759
0.014998993321871
0.0149990704628092
0.0149995976263096
0.0149992872487011
0.014999033522617
0.0150012850109696
0.0150010918583706
0.0157505480170596
0.0153026016369571
0.0149986574622901
0.0150033827436457
0.0153088191244544
0.0157507505341859
0.0150109386647901
0.0150707154873216
0.0162848841587498
0.0162846430758188
0.0150740096229509
0.0151145727833807
0.0169491026072147
0.0169507421036707
0.0151214076423922
0.015160979925389
0.0177427045682336
0.0177086240173228
0.0151609674537543
0.0151559730523347
0.0176894538774421
0.0185155149006893
0.0154778417951465
0.0157733392765689
0.0193271345955032
0.0201357561827348
0.0187404961057959
0.0197544470101158
0.021281936515831
0.0206036897745259
0.0166404226590242
0.0160702967163807
0.0201731923153288
0.0189447498980835
0.015580741704071
0.015459489070716
0.0192316983944045
0.0181480293755805
0.0153564305948883
0.0153190905134086
0.0180739324139023
0.0171542757934809
0.0152749505964174
0.0151438041170941
0.0171857335407596
0.0174783200000606
0.015334879757761
0.0151510227572054
0.0166207395033543
0.0166981200296421
0.0151203401960368
0.0150080619262465
0.0150015654988753
0.0153820114872867
0.0159814350629609
0.0159210451792824
0.0153476059706098
0.0149991343097269
0.0150044515492649
0.0149999924106073
0.0149998037180833
0.0149990197872883
0.014997354650774
0.0149981378746957
0.0149992998539697
0.0150004430193988
0.015001392957543
0.0150060234806192
0.0150015118216466
0.015003595384433
0.0150140260564065
0.0150497370446144
0.0150141281825809
0.0150119430900846
0.0153238174867076
0.0157333458109765
0.0150455773909855
0.0150882413570366
0.0162948721402032
0.0169447242354531
0.0151167643995867
0.015112479812441
0.0169381689084056
0.0177001625837422
0.0151561244819442
0.0151529663107787
0.0177391652508829
0.0186637969152483
0.0153746124162796
0.015385307080101
0.0186716597235247
0.0185900427190181
0.0154163434048082
0.0160095681713507
0.0197382798044453
0.0195753856475087
0.0160847979698725
0.0162791549022256
0.0199770454795088
0.0209296059493129
0.017250158171903
0.0174642280883348
0.0213908372424653
0.0215300162974563
0.017273308411703
0.0165755771661011
0.0205513334328645
0.0214115058679577
0.0167621057019285
0.0173598460706923
0.0228682659496423
0.0248020030399377
0.0179858405568558
0.0186080368714192
0.024688922527393
0.0251687769489942
0.029017153060502
0.0266328930587698
0.0192640454450817
0.0190595130344042
0.0264465448638103
0.0258198362365053
0.0188989347117793
0.0186104419591591
0.0233789716105598
0.026319872140987
0.0251223906416892
0.0234564005475105
0.0178164029033701
0.0218783114428498
0.0241517803829381
0.022817738047951
0.0208574362006051
0.0173613685711917
0.022480263176157
0.0223282837832237
0.0170298943076374
0.0162415571280617
0.0220604133416689
0.020533853727114
0.0157261922550848
0.0154751248676988
0.0204120791344717
0.019150309364008
0.0153652724971335
0.0152162222369964
0.0191479025959922
0.018089637786397
0.0151790978272625
0.0154001273561477
0.0185889691737911
0.0186843063711533
0.0154149037050627
0.015332319408349
0.0175659466714248
0.017356438844913
0.0151140825338358
0.0150459161374767
0.0165890934953554
0.0165844088355029
0.0150512510935805
0.0150065872131785
0.015917987411039
0.0153470335759098
0.0150000942597888
0.0150001580522992
0.0150015707381835
0.0150065626756222
0.0150010108242447
0.0150022384206847
0.0150047766969728
0.0159757599781789
0.0153804536038941
0.0153517583663046
0.0150004192051241
0.0150096510334274
0.0159306628023048
0.0166115379645339
0.0151527099523168
0.0150890403780812
0.0164278974836414
0.0164136156945838
0.015151002787164
0.0150280514960827
0.0150086079879663
0.0152998121328158
0.0158276028052462
0.0158213281210616
0.0152968923422303
0.0150033702369605
0.0150136359547365
0.0158641267499579
0.0150517624036918
0.0150157875277864
0.0153471398166249
0.0153527039824058
0.015030924652275
0.0150675200128723
0.0157898277131709
0.0164049933026059
0.0151417078482795
0.0152427101524511
0.0164323692933469
0.0166318912708808
0.016449009864297
0.0157543625063833
0.0153310145055122
0.0150325459202254
0.0150695412112321
0.0157621256998694
0.0153310696281385
0.0153751731145842
0.015768001836159
0.0172587868174104
0.0176110768307348
0.0171293881307722
0.0153430323289426
0.0152482995378363
0.0171287192222422
0.0179579912922839
0.0153269017826227
0.0154393914186173
0.017909323292071
0.0187463968855873
0.0181667077783723
0.0192067940445774
0.0199514292265606
0.0187478869859252
0.0159052102553627
0.0154942757636152
0.0184965202647548
0.0185731585975047
0.0154064705620135
0.0159948519891216
0.0196867488114053
0.0198426160724625
0.015938918935708
0.0159496474914874
0.0198637962917384
0.0217735528416119
0.0168019020684687
0.017422497594357
0.0232503985437354
0.0255985207559777
0.0178683568190667
0.0177952499250242
0.0249949340718998
0.0277450391447483
0.0192018089967695
0.0193826203961458
0.0272003746645226
0.0265268096691777
0.0195651926530528
0.019342482561135
0.02840099501921
0.0325052092742768
0.0274062574089825
0.0297491364345928
0.0357775995925763
0.0303551517568889
0.0198057284208338
0.0193353541450581
0.0298748358520398
0.027941898520556
0.0192184716443286
0.0190448202418094
0.0267173885260369
0.0253637246770589
0.0185727196679836
0.0180212423050655
0.0236291119935745
0.0232633849408892
0.0173841317593068
0.0172256945409535
0.0244849236776605
0.0239530294164295
0.016820752520558
0.0158353103276296
0.0219187598050192
0.0218219205674029
0.0155143443395557
0.0152821853116724
0.020379007614562
0.021550079838173
0.0155260957555709
0.0154627322697338
0.0199338628054362
0.0200328427444719
0.0154888556605365
0.0152221120710906
0.0193160320058348
0.0182610208866893
0.0151697875440198
0.0151752859647776
0.0182537669661808
0.0173510504122963
0.0151195105115081
0.0153352796521765
0.0175537186647356
0.0166888422245245
0.0151252777018229
0.0150475511364516
0.0150072245181134
0.015011388730551
0.0150051963638571
0.0150040793606736
0.0150039369831534
0.0150020944859501
0.0150443753471729
0.0150230552880983
0.0150544972961114
0.0153358174304943
0.0174643462106631
0.0171728950984554
0.0151411057998042
0.0152759615971871
0.0171447700536071
0.0172068344310495
0.0153372608592169
0.0153622039201993
0.0181292453949511
0.0192001049900965
0.0154765977104386
0.0156204695745117
0.0189001022899745
0.0201119895415498
0.0161503914567171
0.0167160294296726
0.0197597990992894
0.0210513116035383
0.020436222688129
0.0222383493859623
0.0225475842539005
0.0208758996898757
0.0174712532620102
0.0173139280216364
0.0208576317714705
0.0199129034247087
0.0162678466843203
0.0165699764598116
0.0204830361821114
0.021362239721124
0.017385649168468
0.0175366484621661
0.0212831077833256
0.0218425212254785
0.0178843811616553
0.0233641940149418
0.0238260508094361
0.025961650158135
0.0233868933283456
0.0188736212278375
0.0249825204332695
0.0259600901276783
0.0193759710338002
0.0197052844218333
0.0266003100239372
0.0262508678787804
0.0277918163979818
0.0250351880808941
0.0199079076636262
0.0191454803714869
0.0244450234700427
0.0246513466963248
0.0184990601036926
0.0180749433121521
0.0248511036931388
0.0255004896119653
0.0179944152161103
0.0178874763166838
0.0256343707423945
0.0257126425509437
0.0178798439783139
0.0194854607281532
0.0287973554654294
0.0285717737924651
0.0194431925183088
0.0207612017121316
0.0306559028297663
0.0297620889171068
0.0204690589106488
0.0203392824334076
0.0296188817839185
0.0288375786684685
0.0203687779417384
0.0199483003712738
0.0284545097277636
0.0294752443149659
0.0204637036831224
0.0211951239822644
0.033376703532367
0.0325850682061053
0.0397635617921611
0.0323808330445558
0.0201646551893993
0.0194865175327082
0.0318906658734012
0.0312187904766949
0.0192938104460237
0.0189952077293905
0.0294605896850157
0.0273260230954562
0.0188778750152865
0.0179839887118332
0.0261949761574024
0.0248832984208039
0.0176793456994007
0.0168146291361514
0.0160755352307091
0.0154545728008331
0.0155063683862696
0.0157025438787815
0.0164471731145135
0.0240438268577033
0.0256184651861986
0.0165368369922765
0.0164867102553414
0.0252939038071474
0.0248925685969502
0.0166458290456375
0.0166026880131987
0.0246070526198219
0.0252966581151355
0.0175138393143187
0.0174566980419179
0.0255175425689347
0.0259256298765571
0.0174757972223395
0.0180518817714386
0.0264805094995481
0.0260117439766428
0.0181220432061526
0.0173172862658929
0.0246177512602592
0.0167210531234677
0.0185780174388261
0.0276980834866064
0.0295081724761404
0.0195213267820165
0.0190338775379038
0.0285417872036282
0.0273944048690396
0.0177885625563004
0.0167503394935761
0.0282873572778864
0.0307793740554421
0.0163269889666828
0.0162198219763055
0.0281166986943873
0.0256235176381825
0.0160800557552478
0.015615122247813
0.0234648019404725
0.023557805893367
0.0156432731793481
0.0155555634912584
0.021648107389058
0.020535196235954
0.0152732355366935
0.0152784904707382
0.0205195936321568
0.0193056324692292
0.0152277594101871
0.0154878228455893
0.0199975274040361
0.0186644788261777
0.0154168636621792
0.0153956842609134
0.0185668856250551
0.0180698095347968
0.0151683071377092
0.0153179706056358
0.0180564569018449
0.0191197181250337
0.0153593197280249
0.0154570131990001
0.0203616579103587
0.0204823854063605
0.0158014862788213
0.0163480874378658
0.0220342928874919
0.0222552115283603
0.0171528403075472
0.018199686497054
0.0236994245268873
0.0251536038977281
0.0190976969045129
0.019624332860773
0.0275205361804959
0.0282753410341726
0.0199960887564308
0.0198438546877957
0.027162328785995
0.0282943392141846
0.0208002743331683
0.0208306096073222
0.0289293882909184
0.0291534783186436
0.0202658307040885
0.0207799821213623
0.0308082046287543
0.0320601987382728
0.037126348467378
0.0323586646539329
0.0225349287440908
0.0228268879357557
0.0320679154477421
0.0307444790592397
0.0223626274269622
0.0213941236138841
0.0291861100962264
0.0332555486479271
0.0296504856585704
0.02826492629865
0.0308630440842572
0.0274102700640311
0.0213041197171584
0.0208223380093154
0.0272706365460381
0.0273264686745142
0.0200893669092524
0.0195528935041514
0.0277482193571379
0.0285466144808288
0.0195772525849545
0.0194992991199549
0.0287408483779116
0.0309651758610846
0.0209338456565515
0.0209628051543942
0.0310380416277343
0.0309646502108664
0.0208579448054775
0.0208556818307294
0.0307304418751548
0.0339660524712745
0.0228343909760064
0.0226947428050559
0.0338458084833285
0.032895396005312
0.0223017957329283
0.0220338324184594
0.0325181853692723
0.0313467397388095
0.0214772886412799
0.0205906412083239
0.0304854075632198
0.0325568319995933
0.0211746217632535
0.0214194025250562
0.0352182719567034
0.0380346473369996
0.0216600029452047
0.0215240760014088
0.0383284872033216
0.0356885813777603
0.0438692955004253
0.0344406020974923
0.0204833952567081
0.0196443058177424
0.0340502484811591
0.0338507033537696
0.0194459191506762
0.019091849255614
0.0317739810887359
0.0301325908748716
0.0184918008815386
0.0182069172215111
0.0281046924738555
0.0171912755756907
0.01649796301126
0.0162089239926153
0.0162997619813828
0.0157435418479245
0.0156687422440357
0.0156027950320934
0.0155605960168782
0.0153306337499259
0.0152787643690819
0.0155796565955227
0.0250895862527402
0.0234639467422347
0.015439386127976
0.0153375490719423
0.0219273995734201
0.0219030605063491
0.0153351183647183
0.0156239042885149
0.023445923095838
0.0215816634043144
0.0155561233251432
0.0154936228323498
0.0214793754597571
0.0203315656034269
0.0152521196238217
0.0155951995330488
0.0217356186270877
0.0218274355656913
0.015974651258955
0.0170584544928179
0.0240196293770524
0.0245795746796931
0.0176644093995183
0.0174956946216706
0.0232195902941981
0.0250053527714799
0.0179217242050356
0.0187672058405572
0.0257188022995458
0.028388655617714
0.0189356827757298
0.0200881405780493
0.031146211637186
0.0320966854333966
0.0206814664296634
0.0228926060905745
0.0349039877877803
0.0399952634757529
0.0334741850559004
0.0353286050093699
0.0444293733963837
0.0387621038307855
0.0232286074002707
0.0240053601280344
0.0387732938973461
0.0359849855247711
0.0247583379998746
0.0245318619133115
0.0357359366626086
0.0371851199847196
0.0247773041598029
0.02553067607653
0.037864034621474
0.0380492855361244
0.0252074112624379
0.025451085938646
0.0384532203178634
0.0400762915768978
0.0257847574771892
0.0257927754765953
0.0403104939686819
0.0409343279726648
0.025840921969504
0.0258256891585839
0.04086479956053
0.0406239799223695
0.0258231100486868
0.0256612417514582
0.0402716482321287
0.0395156509721058
0.0254683655847532
0.0251899298001767
0.0391902936652007
0.0385850135256689
0.0249063013089424
0.0237744049490686
0.0375417038630011
0.0347206100196685
0.0223599596170719
0.0227074558814918
0.0390265230753203
0.0439808163844634
0.023063332162465
0.0234916213370014
0.0506300607604097
0.0411911544306753
0.0218393878859437
0.0221178286841847
0.0451538381686969
0.0443653166160462
0.0218389426522474
0.0207970726820514
0.0367272093140778
0.0487829633635141
0.0393411448264688
0.0431163506122183
0.0537902176209018
0.0395164047100815
0.0211017611075631
0.0200980792513748
0.0390738615984772
0.0364309666767945
0.0197921641368379
0.0196485773911059
0.0367491397469034
0.0343386745449284
0.0192156132591935
0.0186245685846774
0.03244044836858
0.0317554578504677
0.0192400471582846
0.0190258502473911
0.0294918164136737
0.0171753051674428
0.0174011407046804
0.016866099942933
0.0157772660386199
0.0158366946814118
0.0156464143300458
0.0160434984803064
0.0309697640775539
0.0282545899850253
0.0158910782408991
0.015769176074757
0.0257858055327858
0.0153871146657336
0.0151976590153034
0.0151919656119138
0.0154381595906448
0.0233956770426963
0.0255820253754413
0.0157145307386151
0.0156973529618162
0.0255071370931676
0.0234123441736031
0.0159671688552359
0.0164560380298312
0.025927328757701
0.0251552989592346
0.0172712388335437
0.0178681656420889
0.0256114502864492
0.0261988465500362
0.0185439539218562
0.0181114560141079
0.0262497460207531
0.026992372684494
0.0182038005320803
0.018436439570609
0.0291534116179724
0.0310286834724163
0.0191844365685514
0.0204273749287961
0.0348788890603484
0.0332485247356444
0.0208237381929855
0.0209600572322195
0.0354521399814004
0.0375526833562388
0.0484507474482483
0.0426666011099176
0.0235212314357785
0.0243900444380459
0.0436381258958895
0.0412216960784209
0.0259722927967811
0.0266327026290027
0.0417055084883297
0.0449839314796411
0.0267286787654373
0.0267400554884103
0.0462865121769565
0.0466978883518083
0.0268709182817754
0.0273785004532214
0.0487447903822714
0.0493046000229061
0.0271608598346172
0.027475977953306
0.0506401438894642
0.0511921443274115
0.0276186841776803
0.0280112609229927
0.0527521236184639
0.0545382613456222
0.0281928903719759
0.0282397583634373
0.0552529268346275
0.0553592823615943
0.0280884693270793
0.0283718168732189
0.0559028303645098
0.0570401072580006
0.0283713921458937
0.0282844045238902
0.05708706060784
0.0570212025969688
0.0283427015934853
0.0283492376460778
0.0567059944350462
0.0562810471581729
0.0284720987426439
0.0281878870103735
0.055485617080181
0.0553145161471551
0.028208190671703
0.0280641618885253
0.0542387953490544
0.0532819014403183
0.0280096351507996
0.0276484406421568
0.0518303442874881
0.0512974781612257
0.0274720937861145
0.0271006911180853
0.0499675374096522
0.0491091997625983
0.0269048450066446
0.0262889009795187
0.0473287110229685
0.0471915070903085
0.0260925771365624
0.0259770913405694
0.0417886835004396
0.0432812193529922
0.0265936391423563
0.0267558307086127
0.0436441771832792
0.044259333887615
0.0271020461782003
0.0271939470235653
0.0442701565766743
0.0450864999085551
0.0275597816256328
0.0275827128830011
0.0455808468834282
0.0462491959007554
0.027776792393123
0.0277211680476092
0.0462780671081087
0.0467556050965713
0.0279592193259007
0.0278568468081143
0.0469110033857298
0.0471644660394342
0.0278739302624617
0.0278414547409988
0.0471550256249347
0.0470937829479083
0.0278789418662278
0.0278436475611882
0.0463610124370532
0.0460510728120667
0.0276531702150848
0.0278130116987437
0.046037354622391
0.0455249042943005
0.0277083291645057
0.0274941638215649
0.0440533646458052
0.0431855640113272
0.0271228172645386
0.0270598016819697
0.0430083644109652
0.0423870995713741
0.0267626598684538
0.027087861400011
0.0422935824300743
0.040917365355017
0.0265847161890647
0.0268266093487718
0.0228671557215456
0.020482894361822
0.0179135826968267
0.0173705211202314
0.0166260140981002
0.0164761425135717
0.0159051694936725
0.0157882229462929
0.0157547528627601
0.0154965372115872
0.015418542532656
0.0158622798556171
0.0279424107892562
0.0281003699344814
0.0159500930927661
0.0161468973851906
0.030956365325537
0.0286631124327049
0.0167894957849506
0.0173486699700749
0.0284468432406706
0.026833187917631
0.0171999245545397
0.0182357784363036
0.0278492618273973
0.0285532638820522
0.0189508155794962
0.0184207766386855
0.0283359498572072
0.0305931051958454
0.0186094621651589
0.0186833244756513
0.0313469805550975
0.0338762721258971
0.0195249364489585
0.0210710026940864
0.0392675290602136
0.0374823150368103
0.0214943472973517
0.0246654817173091
0.0403049552833213
0.0534833860990414
0.0468955366584948
0.0496482959665536
0.024835976861418
0.0264237964448389
0.0481627584427817
0.0522992529269045
0.0271217667110771
0.0281839629833134
0.0556879748905892
0.0583891892033763
0.0282775009445847
0.0282629296544878
0.0620069242907727
0.063025936451795
0.0275913070669184
0.0282401485422456
0.0656776584938532
0.0667787561923201
0.0283252602194178
0.028807776465587
0.0692563615526473
0.0707455661860516
0.0292617731522719
0.0297799656633407
0.0729043107342508
0.0744259919486367
0.0300735325175545
0.030271999071161
0.0747872574829636
0.0750410320277701
0.0303471932864071
0.0308149860656318
0.076065087417521
0.0779170976665185
0.0307799844448345
0.030696127489777
0.0777712594476057
0.0775237163152051
0.03079222711779
0.030697214073898
0.0772679996925234
0.0765476738890973
0.0307631380885239
0.0303541804671257
0.075563297088735
0.0754283900829818
0.030092025653
0.0297816963862316
0.0746058924167485
0.0733258473629371
0.0295167623046955
0.0290746086212688
0.0711240663505482
0.0690048472158546
0.0286261617227597
0.028080083825432
0.0664978458245638
0.0658151112630668
0.0277168126458817
0.0270048490331554
0.0645356239616961
0.0568804722865875
0.0259445375467984
0.0256913754347154
0.0509722896624651
0.0454905605687961
0.0242391351578709
0.0247450368069099
0.0548945682491716
0.0675647855136495
0.0252603897011408
0.0258270277892679
0.0868052423608654
0.0591995166527493
0.0239134398393689
0.0243344707439469
0.0713397098230232
0.0490445148835256
0.0222657143632866
0.0225025122396952
0.0548415357159203
0.0521057483155811
0.0220964264505145
0.0223399217092547
0.0618072005807348
0.0483967938904525
0.0598754156294067
0.0429837821963262
0.0233079599780197
0.0218675936656564
0.0419956253657763
0.0433378895371575
0.021536023868126
0.0203272170604425
0.0412119146496667
0.0373051589673367
0.0193458813575315
0.0187376543392402
0.0350424164377657
0.0342980061700532
0.0193164335382689
0.0197842125064614
0.0350902102021395
0.0321352874508054
0.0197579581205833
0.0191691085821094
0.0310841148779053
0.0289889434887516
0.017604701991278
0.0176599418154044
0.0306993115909715
0.0314617678046487
0.0172930506501154
0.0174454824694214
0.0342375637981309
0.0342409277026677
0.0162300132248045
0.0158440233137893
0.0289009906992638
0.0268217077181164
0.0157262869586317
0.01572698248156
0.0266772893461832
0.024972957386468
0.0155783528200715
0.0152760794648987
0.0153773353807055
0.0155503582172105
0.0160451084232645
0.0305892939977698
0.0338457688588802
0.0163105503175625
0.0175233463976541
0.0342722610403069
0.0317818701970936
0.0174972821406413
0.0174373123327509
0.0315692153141247
0.0298414273693939
0.0173229599168694
0.0185186172818259
0.0329238072383621
0.0303369497362805
0.0183898046074684
0.0191054663851796
0.0312269273471877
0.034181646611922
0.0192160832738405
0.0187782016055235
0.0330331802944436
0.0337796007970753
0.018902673314167
0.0198504133688537
0.0371124371563077
0.0442191013638847
0.0214185390319781
0.0217947984229001
0.0424336428501751
0.0475214770630996
0.0675400535290878
0.0574450385739678
0.025409419830237
0.0256040254917039
0.0661053910626592
0.069928856838512
0.027324369679276
0.028048886538976
0.088723837071169
0.0968789316947463
0.0289168218135895
0.0324240201574967
0.135616744868345
0.136470554243727
0.0326192819501565
0.0339579684992502
0.14279407787913
0.156333491322712
0.0381153046868231
0.0444921503881316
0.156065359535711
0.179354516030612
0.049520098605107
0.0505766105767268
0.187562807121445
0.191740091125764
0.050298539149281
0.0494456048920931
0.192236878550309
0.193017828817635
0.0495776537636547
0.0492036810085344
0.191421247305598
0.190509410646746
0.0496805676010644
0.0492747283127251
0.187865858929995
0.187333099232183
0.0497230589994969
0.0493956737940457
0.184652953007244
0.18518450784216
0.0498825626796785
0.0496103027303406
0.183785234632495
0.185782258177343
0.0502177219579538
0.0502886265253846
0.186023735023297
0.188754485650395
0.0508661973243439
0.0506004865233494
0.192812369618793
0.194241273272608
0.0506321829924375
0.0503605221299123
0.192306562989746
0.191450455517245
0.0505299635301997
0.050858406818594
0.19128425295139
0.190348269506047
0.050445991087689
0.0506573910164712
0.192157407201633
0.190523946373574
0.0502431149906221
0.0508065822493053
0.191669164014409
0.189970003222233
0.0502934395251637
0.050436330567299
0.190672872965112
0.189630422003781
0.0498987190376285
0.0502139304457807
0.191884583429843
0.192196144446786
0.0497490075000269
0.0501346723469889
0.195538914955364
0.196928459273204
0.0496396025420668
0.0502858670347776
0.199862849061826
0.200194333244461
0.0504305044868577
0.0514917335133209
0.200052021811595
0.195395836241268
0.0517266553190455
0.0504510291513062
0.186095657397878
0.160841840316923
0.0452348879060593
0.0393232817987154
0.162092601578646
0.152360708035457
0.0354835289309391
0.0323799600261883
0.149935492732715
0.101696365875934
0.0274120947344012
0.0267458620736011
0.0843007992430579
0.0732675932201122
0.0264232226340585
0.0260106816945568
0.0635945889138143
0.0774850903116405
0.027544577013245
0.0288584481611399
0.0940120026184672
0.117310106416885
0.0300640232067901
0.0331189099118393
0.117347010956957
0.121572128781576
0.037182141436613
0.0438452470427648
0.137962204944978
0.147654317981223
0.0495119455609064
0.0506692619548438
0.153213970514843
0.157556309484389
0.0509938972341913
0.0495362715629337
0.159789667622691
0.162112910509305
0.0494528715942898
0.0483495234706839
0.16072632194005
0.161542653597709
0.0489983089233597
0.0483333308667344
0.159047151302163
0.160195425678364
0.0489407324992998
0.0484195318166729
0.158178972501954
0.159934842750313
0.049065689903715
0.04879221661759
0.159326603268233
0.161191425416971
0.049411910554282
0.048754615724431
0.160643282770815
0.161991635101445
0.0492362271118177
0.0489863903707087
0.160590594327014
0.161488436275104
0.0494026461291147
0.0490758071258934
0.161745039854495
0.162053703256802
0.0489445232005779
0.0492096347992309
0.163513817395868
0.162688145811953
0.0491273938543881
0.0493995403307467
0.159082982936101
0.15705370488687
0.0487998496540562
0.0487875281126882
0.15658476823914
0.154680257261652
0.0481265369805095
0.0485366112848093
0.15594257163275
0.154588832862194
0.0479385313480638
0.0484522856416343
0.156928974142331
0.156001949963616
0.0478728097602369
0.0485462569207101
0.157808787636599
0.156737846591368
0.0479330166873441
0.0486776051924959
0.156944448297665
0.154041086485332
0.0485048416002931
0.0497975976901673
0.15183379221481
0.147767140128
0.049583623623162
0.0485373262321644
0.142832914851129
0.133876860369385
0.0431264787436715
0.0358547081271722
0.119065955753021
0.111033632023531
0.0414245082484789
0.0457634476589222
0.116531507653683
0.119740289342163
0.0466010234894126
0.047415850515
0.122812954393871
0.124120055422032
0.0463439043850732
0.0471668450351266
0.126958519407071
0.126929382042592
0.0461952839137153
0.0469350634560231
0.129342978702735
0.128132374977105
0.0459016691385424
0.046660980587985
0.130037043790583
0.127983488749236
0.0459120707450103
0.0466470509863995
0.129735423501736
0.128682629690744
0.0460796142070304
0.046782207247396
0.130284158732448
0.130951037676708
0.046733415049662
0.047343897832853
0.132249379811145
0.135380303297718
0.0470624341231601
0.0471910219850545
0.135871072603069
0.134794468668822
0.0469348293601192
0.0470158314147537
0.1347193899741
0.134418620239063
0.0473313027928932
0.0469408497464972
0.1337579820862
0.134785537012171
0.0472262021424846
0.0466838473720622
0.1336978068883
0.133807737514813
0.0474497657209796
0.0467084972877178
0.132104581447637
0.132578276051022
0.0471391343795539
0.0463623555476307
0.130508298464455
0.13232163302467
0.0471502230094263
0.0463384992629678
0.130202599898208
0.132134692782405
0.0474032794132303
0.0466082711862711
0.129789297838162
0.131092339313608
0.047953171257211
0.0472616832964753
0.128484845275431
0.127046814857547
0.0484704240342827
0.0475563171596893
0.123778831269508
0.120170003632178
0.0467067170781999
0.0421111772045946
0.114343725618206
0.103569063763592
0.037967388070207
0.0328096155567536
0.0950349955374249
0.0940282651512231
0.0306258550073307
0.0287929125238609
0.0780402804585937
0.0791244766206823
0.0294083179501433
0.0302363456768248
0.0828784712778543
0.086222995477075
0.0305663438283379
0.0392992248068442
0.108494034212524
0.11209646058444
0.0389753915863254
0.038642177717585
0.112898745628974
0.1130967107608
0.0385660416759008
0.0386557381197948
0.113196815403663
0.114413057020342
0.0389388105964234
0.0387814716651058
0.115527306382184
0.11555441719615
0.038871500572121
0.0387090891017077
0.116107706728259
0.11670209868604
0.0388330554918959
0.0389510302509692
0.113434794302856
0.111663863095782
0.0385049723606697
0.0383813737640033
0.11118173302199
0.111330078953397
0.0383090270096061
0.0384469571866046
0.110462680770124
0.108368224443746
0.0385093049561901
0.0387112334786737
0.10508933993012
0.100643725521726
0.0372296919306452
0.0318420776209196
0.0938851421730643
0.0896805558977321
0.0292868598975156
0.0316625904587562
0.111292176440372
0.108075628630911
0.0307112387227174
0.0302753513238498
0.106555215520799
0.0804977977477184
0.028448264195779
0.0275816606337472
0.0665715419177745
0.0696697050195658
0.0282909787900434
0.0292331485583013
0.0852671777624181
0.0879337921240908
0.0291722622200972
0.0285234341751749
0.0728352404957541
0.074287641025442
0.0281522479442844
0.0290061976045934
0.0782853138054346
0.0804211378459146
0.0298107097840189
0.0302645680757047
0.0837168624626895
0.0855239747432568
0.0305070949193513
0.031263673078861
0.0865276992035208
0.0867935244275795
0.0317997279527127
0.0321758387331598
0.0864498576721817
0.0864530151900369
0.0324321527165704
0.0329797034890028
0.0876261062340372
0.089661266584019
0.0329732664054471
0.0328927738636836
0.0894149875827757
0.0890875744482362
0.032995085482152
0.0328539697989596
0.0888479863660079
0.0883290186560918
0.0328220180491334
0.0323215833581957
0.0876383882799705
0.0881324692070323
0.0318309738298406
0.0312565967474372
0.088456809526219
0.0885651160047108
0.0306931730932638
0.0300832702103318
0.0268189855517564
0.0263715343704384
0.0258497034641097
0.0252364983904479
0.0233787180264409
0.0232118071063402
0.0228710103511367
0.022556447263903
0.0201140934538401
0.0200641637267057