/*--------------------------------*- C++ -*----------------------------------*\
| =========                 |                                                 |
| \\      /  F ield         | OpenFOAM: The Open Source CFD Toolbox           |
|  \\    /   O peration     | Version:  2312                                  |
|   \\  /    A nd           | Website:  www.openfoam.com                      |
|    \\/     M anipulation  |                                                 |
\*---------------------------------------------------------------------------*/
FoamFile
{
    version     2.0;
    format      ascii;
    arch        "LSB;label=32;scalar=64";
    class       volScalarField;
    location    "1900";
    object      nut;
}
// * * * * * * * * * * * * * * * * * * * * * * * * * * * * * * * * * * * * * //

dimensions      [0 2 -1 0 0 0 0];

internalField   nonuniform List<scalar> 
162506
(
0.00149786168125255
0.00155227289250823
0.000102987212485006
7.88007034697004e-05
3.92611264426641e-05
9.52642949766154e-05
0.000460212676751676
0.000530887746448283
9.31985581342883e-05
6.34525578179291e-05
6.95895585241969e-05
0.00088591973173629
0.000936981095300848
0.00130188499817065
0.00293181944264413
0.00332137853274208
8.9529036721223e-05
9.28912923445569e-05
0.00132945576548067
0.000677631839136719
0.000910843001063406
7.98737774912281e-05
8.51391133879881e-05
3.87256734980462e-05
4.36014686974172e-05
6.1259071291278e-05
5.67984664631795e-05
0.00570449959985411
0.000106154908235706
9.820128379355e-05
0.00813505975653344
0.00772364471283421
0.00496180717891054
0.0104494761129247
0.015000115898805
0.0149413103718202
0.000100603897359911
0.000109813120294236
0.0106571871601364
0.00846509020422027
0.000113129744021949
0.000110713234729742
0.00510536301907029
0.00458201978764823
0.000110747469681641
0.000110630338124573
0.00324894886379812
0.00081540812793826
8.70923095355535e-05
4.53257074984304e-05
8.51772756060331e-05
9.13394682752577e-05
5.0079340819642e-05
9.64917049387913e-05
0.00116107346198632
0.00128198872381412
0.000101217862004371
9.79041752364911e-05
0.000863649940744648
0.00214228223524683
8.25012855447766e-05
8.17069027059097e-05
0.000955047676601877
0.000819810766525268
0.00228427251446803
8.06790730770217e-05
9.25364720434038e-05
0.000109623593939512
9.78210376857075e-05
0.00434975706822443
0.00283500618716296
0.00418220068204849
0.00593898664368651
0.00352945603414247
0.00247415627632975
0.00192494959869487
0.00167937878518868
0.00333994448919609
0.00298437705212247
0.00010268315897638
0.000113684886632451
0.00530360868867895
0.00507037420145379
0.00827130374995273
0.000102931382357719
0.000112842916151705
9.99222494038194e-05
9.02206524690274e-05
0.0101046741887214
0.0056620139615181
0.0131068665705421
0.0096209533537374
0.0145292406991008
0.0125330230876413
0.00871227582435017
0.0116653226546139
0.0150003106752601
0.0150014785487665
0.0150016943444365
0.0150004406853962
0.0150003380092588
0.0103857397150043
0.0109433783439265
0.000109774206868944
0.000100687835662816
0.0149430591349504
0.00731866664945625
9.82866073084277e-05
0.000107008847505295
0.00569922233575471
0.00570692326091668
0.000110705435180986
0.000113664122974717
0.00931352129930594
0.00803723035713765
0.000111183316343105
0.000110076999400196
0.00788014791427852
0.00485538530501327
0.000110956177865325
0.000110719615846498
0.00380533527602514
0.00334318147168479
0.000115615911175474
0.000112464207875289
0.00230375516448275
0.00112577375910493
9.70005637750385e-05
5.41726995780917e-05
9.42754307228682e-05
8.76789610442089e-05
4.83549360698524e-05
7.64231841721043e-05
0.000744200281587738
0.000702722696964122
0.000112256554804459
9.6706593381502e-05
0.00131407233323728
0.00219496295365678
9.34320117779239e-05
8.75990584205121e-05
0.00271966675699481
0.00373655231696587
0.000107806387112737
0.000106072497851026
0.0035162455321645
0.00824550451039896
0.000106406213637306
9.81118079700674e-05
0.00480106230509527
0.00691962051439903
0.000104860783514855
0.000102389053352106
0.0080270676953462
0.00709604563714742
0.0110140119730055
8.65932561993678e-05
9.60093015312253e-05
0.000105912785349637
9.42711113066182e-05
0.0149278965469503
0.00818216251331274
0.0150011152383715
0.0150007006551391
0.0150003451010581
0.0150008112130383
0.0150010933636279
0.0150004692872207
0.0134238814110954
0.0141991730369138
0.00869051321748699
0.0104547888653143
0.00703805832335813
0.00489623128898287
0.00126316062723453
0.00278933614169573
0.00312917227812698
9.01386156526967e-05
9.62962955010785e-05
0.00143547803555627
0.00168875973817095
0.000103017574131991
0.000110804823150496
0.00318629776580471
0.0053209118281404
0.000110969813655383
0.000111897358356603
0.00415749046112812
0.00515534932243161
0.000110579253694304
0.000108171196122304
0.0027616952749281
0.00275014665563971
0.000105270748386429
0.000108594678643497
0.00251847568341941
0.00135787680537562
8.98284167321659e-05
9.46411731277628e-05
0.00138307552539821
0.00072588261542127
8.71416437470829e-05
8.64045364864967e-05
0.000720457137114605
0.000611190702657974
8.03581368022513e-05
7.61460958760984e-05
0.000697501976124752
0.000640450397086139
7.77315105222075e-05
7.31193231317373e-05
0.000815229246028311
0.000588018935453652
5.39900694822653e-05
5.2124007809232e-05
0.000510004476957908
0.000618215326970127
6.46508892094022e-05
5.75192823672683e-05
3.32084792775091e-05
6.77589752123208e-05
0.00060394787750845
0.000540478015948933
7.23253111397563e-05
7.24068612587907e-05
0.000492134657222244
0.000480884411051929
6.02975977589927e-05
3.58919731289787e-05
6.82128051866104e-05
7.44032654473941e-05
0.0003841272969892
7.05424947542324e-05
3.37063587135118e-05
3.50661796008253e-05
7.43890667883028e-05
0.00050393083185373
8.75689804941762e-05
8.46237619156809e-05
0.000561164478160227
0.000968776994481819
8.65200819458391e-05
8.63010596481157e-05
0.00153050996131177
0.00208053337700136
0.000110609550242985
0.000109303237055169
0.00293851803816626
0.00432446304897876
0.000111645221898419
0.000107226739026992
0.00702632962716325
0.00436782292399866
9.51558135951395e-05
9.55651772932989e-05
0.00442218100381558
0.00496043944324379
9.77713346266305e-05
0.000115481450080391
0.00894253116255552
0.0113981421509392
0.000114555269425463
0.000113471411345926
0.0112423574554491
0.00701956665369975
0.00010643514969311
9.440941773266e-05
0.0149281214081019
0.0147846274484335
0.0132765135684989
0.00587770920587709
0.0116678545206335
0.00941400642636176
0.012222159735407
9.55658344120459e-05
8.70039240362998e-05
9.01436628593835e-05
0.0146890519759799
0.00536389083536026
9.95849101273381e-05
0.000103669430863927
0.00671347169729785
0.00564530669781005
0.000113321720157915
0.000102798731496468
0.00279470045169042
0.00295212547624307
0.00412954120357294
9.7156499408334e-05
0.000110734707424304
0.000113005341833212
0.000102844271720415
0.00766011391637214
0.00509362104319167
9.1019300795158e-05
0.000831313461822883
0.00235090441995686
8.14042382114227e-05
7.01138634628745e-05
0.000880440987337016
0.00101907429108241
6.37794999911803e-05
9.47446814305246e-05
0.000531944458636181
0.000455052694836997
7.79974254428935e-05
4.00560874280508e-05
9.87572531111868e-05
5.99529495455348e-05
6.40394243497462e-05
0.000927467488698102
0.000680684171036524
8.46164108329177e-05
8.28994442926649e-05
4.37521647967249e-05
3.95216178050454e-05
8.37544729147849e-05
4.57510008004247e-05
8.6367837296279e-05
0.000777683515894806
0.000875636779227248
9.75005000872939e-05
0.000103776593085778
0.00128202697511717
0.00117342084310967
9.25376784240757e-05
5.03681771741627e-05
9.53893670830765e-05
9.68404753720392e-05
5.38080603886329e-05
9.33019964636039e-05
0.00115149496687425
0.00236253347723662
0.00011380012921975
0.000106890569296689
0.00267027050615602
0.00135394823900422
9.44140871493832e-05
9.52159679680791e-05
0.00128776193812265
0.00135005186743421
9.68168855583473e-05
6.47545985261199e-05
0.000712969243241626
0.00042260408827916
5.19363896283155e-05
4.29888670417774e-05
0.000288902186909459
0.000373827841526705
4.7577865820153e-05
4.21615524456614e-05
0.00028784846332128
0.000385524844527986
4.75384277727671e-05
5.37040588117847e-05
0.000513746436153354
0.000622768156837648
6.21326105563397e-05
3.35184403276988e-05
5.22872485763016e-05
5.30096862389675e-05
3.82970683512826e-05
6.54409096243347e-05
0.000391803008869496
0.000488337244734581
6.65962431514688e-05
6.29064239724605e-05
0.000864270627460991
0.000419057087860718
5.64691147810897e-05
5.08498665064063e-05
0.000383943079642052
0.000313616564874553
5.87208750434827e-05
7.29429782658714e-05
0.000428185414329232
0.000826279242194798
8.044207779457e-05
0.000110107102341459
0.000836569161678566
0.00131611126967469
8.9351836983481e-05
9.54986378169601e-05
0.00156114606197475
0.00262246310496715
0.000113730574838837
9.82774489584578e-05
0.00289708568261978
0.00413468110911516
9.60070222217256e-05
9.65795543024389e-05
0.00413528294415143
0.00489647357330057
0.00011512925497757
0.00011469335468077
0.00793506300689476
0.00792058998414834
0.000115010215197988
0.000114997216878453
0.00894416813179458
0.00493981316390741
9.64759392122577e-05
0.000100261259869087
0.0075444346420996
0.00319921040168283
0.00774597980718336
0.00777293368120377
0.0147374021060032
0.0119536422317373
0.0105087718382326
0.00879858042633914
0.0115706012722909
0.0134231087077963
0.0110915468064397
0.00476621453111077
9.85270417678299e-05
0.000105250383041978
0.00819972514625172
0.00341719168911738
0.000105877636382519
8.30660354597104e-05
0.00205769523141722
0.00290577714616995
8.69785952132996e-05
9.27774780168525e-05
0.00256192032265182
0.00136876701831611
9.76310282883867e-05
0.000109871828198935
0.000730052113299504
0.000824719310434355
8.52829136307815e-05
4.67744946845774e-05
7.71454286720707e-05
8.44139094720199e-05
3.3969055362085e-05
7.08175485606955e-05
0.000540731648691838
0.000635688370595442
8.54483607504489e-05
8.61109654202766e-05
0.000724731251076069
0.000668490093680349
7.98675260090435e-05
7.5777216436475e-05
0.00058606556488508
0.000545906444655731
7.63917128841324e-05
6.32740038061374e-05
0.000374523836542669
6.7208611627034e-05
3.27126258103951e-05
3.26997313160841e-05
5.57589596013312e-05
0.000389116487486325
6.15295111566563e-05
6.38167229535427e-05
0.000322620905803547
0.000411074646821377
5.45939452850765e-05
5.25695281975748e-05
2.8103718633538e-05
5.04969998234113e-05
0.000424399168446867
0.000488785454990502
5.72580164626493e-05
5.31290963124648e-05
0.000408989298256485
0.000283301168463754
4.34172882543076e-05
4.00498852199929e-05
0.000259860782925659
0.000245891968688423
3.81399905476824e-05
3.92130425128017e-05
0.000250094671697847
0.000184574446378705
3.6413852334199e-05
3.55976705907462e-05
0.000214130828408611
0.000177669356573688
2.96815598922843e-05
3.73445531686915e-05
0.000190511921865585
0.000259553705098376
3.74561710911305e-05
4.28481282826819e-05
0.000295343237715981
0.00034270917397014
3.77690923946761e-05
4.47161806346913e-05
0.000325394065333179
0.000277106996186857
4.32977350489659e-05
5.52999334207527e-05
4.28148676291141e-05
7.0063737305533e-05
0.000312007487541578
0.000380616587307296
7.36516171039531e-05
6.74546897735713e-05
0.00044859114326039
0.000507068044976186
6.27872512243283e-05
5.64045798471361e-05
0.000444890212854463
0.0004323974847171
7.55688395202001e-05
7.25263961753025e-05
0.000491332117431634
0.000494234926132527
0.000610698326777724
0.00049261839165097
0.00030417397406809
0.000435653529314694
0.000835256125949007
8.29683537001012e-05
6.56614291016071e-05
0.000577993843436162
0.000364024574482724
4.64281397966631e-05
5.11116361365542e-05
0.000461522449642334
0.000754347949752642
6.36772647486222e-05
6.79970558679216e-05
0.000474062885444605
0.000390472692975514
6.02719154099687e-05
5.4408507110301e-05
0.000333829818388194
0.000336767263317273
5.50297150935215e-05
5.3046141371511e-05
0.000499869466996422
0.000950243949371558
7.45102108549904e-05
0.000477677558845329
0.000714475422157414
7.37979809057885e-05
6.30536564354676e-05
0.000583538264036833
0.00050547923886601
6.06663239377433e-05
8.15208807763029e-05
0.000380612942470886
0.000461405383166175
9.74501552111895e-05
0.0001075452960299
0.000651349950674266
0.000663816950657468
9.3631212628058e-05
9.22636896720317e-05
0.000973385935578973
0.00178020270532344
9.22405201517163e-05
9.66523408134285e-05
0.00172948887039971
0.00304850258243649
9.71781113165282e-05
0.000114938599020156
0.00275132113818069
0.00283513110736805
0.000115299037173185
0.00011542009202977
0.00519514003448254
0.00411909145807858
9.69194038408114e-05
9.5762228026975e-05
0.00440127018096943
0.00435111165951642
9.59406705027219e-05
0.000107234209248401
0.00760981900394492
0.00412329725439326
0.000107786570083605
0.000112844939415045
0.00320583736338674
0.00234646327570383
0.000110587806827714
8.33179596542742e-05
0.00187504818624696
0.000897045074733736
9.17531345021724e-05
8.11793865824728e-05
0.000521340258517479
0.000299564807852148
5.48813121322974e-05
5.80977254062429e-05
0.00079194887530541
0.00056034814064998
4.65068703880089e-05
5.68064622461105e-05
0.000797506718904174
0.000585178106248192
5.46485539848234e-05
5.32598792564488e-05
0.000417835427033882
0.00042338555303652
5.47446890910091e-05
5.40164653374899e-05
0.000430766568442526
0.000389107271751909
4.9611557624524e-05
4.82827379003315e-05
2.61100972722917e-05
4.1013572186768e-05
0.000285081128344956
0.000243887362097571
4.2525959163977e-05
4.55158530120711e-05
0.000224939208850532
0.000334821474842194
3.98342338836987e-05
2.46662643182888e-05
4.2587489448522e-05
4.4916568445151e-05
2.66121458904379e-05
4.53850704514179e-05
0.000428861245585902
0.000443273851598365
5.31901477341438e-05
4.36751111499689e-05
0.000306270495240337
0.000217277444340056
3.63218347042985e-05
3.8523250034596e-05
0.000182471254189761
0.000174438469874671
3.72359742166108e-05
3.26497459647185e-05
0.000129670988170685
0.000127847278109852
3.19753239415563e-05
3.07423166860173e-05
0.000153054632213432
0.000147322240743449
3.34214095243065e-05
2.62127974099212e-05
0.000126209490752501
0.000140616220558977
2.41497188648204e-05
2.97865281527784e-05
0.00016867045030413
0.000213507710247104
3.02036605602373e-05
3.56767767546634e-05
0.000242869702624695
0.000263721051524456
4.08017856414998e-05
3.35279235892359e-05
0.000246835442040869
0.000212314269082294
3.78794699862136e-05
3.89843300003415e-05
0.000204345864307163
0.000265628503590344
4.76907151054436e-05
5.94024137780465e-05
4.76870879194132e-05
7.56738265666261e-05
0.000303476488111322
0.000370090870416677
7.98103167177159e-05
7.31519546729425e-05
0.000430584108920595
0.000575570128055615
7.03175274149531e-05
8.11292406049401e-05
0.00055642169653259
0.000439056834691054
8.01526525372913e-05
0.000373485085750757
0.000294555604288133
0.000184156085696047
0.000124810927419758
0.000137432861894528
0.000211764986571587
0.000223259524041451
0.000156886295234049
0.000281529608509228
0.000472786222425227
0.000651724800843632
0.000108922310021006
0.000110069782975001
0.000962633045719251
0.00158449577697101
0.000113286864256125
0.000113802592408906
0.0015922308399768
0.00169960733292727
9.76745115890624e-05
9.76054485751185e-05
0.00316719248334201
0.00304049541186962
9.69280261746758e-05
0.00011519740350152
0.00303872723963612
0.00171302578553501
0.000111087022416732
0.000112599608160871
0.00129354204053087
0.000935741806130547
9.50917360466785e-05
8.26714614537989e-05
0.000963465814106276
0.000411961069745681
7.35943840026875e-05
7.27928651732789e-05
0.000425961507446805
0.000409499904446706
4.15976210501926e-05
4.9130251379546e-05
0.000463964729190094
0.000444695971941516
4.79889274905253e-05
5.2295618473926e-05
0.000328520101622476
0.000287789741768784
3.93094390674723e-05
2.58758843929247e-05
4.45164345288092e-05
4.64332990605203e-05
2.96924341541911e-05
4.12271749621898e-05
0.000233929528565221
0.000200643191971148
3.53530213119636e-05
3.02176456548388e-05
0.000229998639054046
0.000189666757273598
2.84166562459552e-05
2.3439547506535e-05
0.000175183187257829
0.000148503397193872
2.27951453260144e-05
1.74618964135336e-05
0.000125603027636182
0.000111409594263567
2.22408455331481e-05
1.82554174454626e-05
0.000107118468270029
0.000108723998831776
2.23662297446172e-05
2.32636025280909e-05
0.000107578898589322
0.000106049216713807
2.29350807080642e-05
2.24573436825986e-05
0.000106088674757393
0.000107889911053662
1.82050333629085e-05
2.24044175477186e-05
0.000117314923797346
0.00013517814654296
1.78619507395707e-05
2.32323070322989e-05
0.000154993894216299
0.000188929481624703
2.53623432656246e-05
3.08928304619357e-05
0.0002127182820324
0.000181826387404286
3.07844710440286e-05
3.30032214251608e-05
0.000175208104518988
0.000160737037401631
3.89621317246497e-05
4.30168290485941e-05
0.000196588317507166
0.000204872803337172
4.978668346847e-05
6.12572422901415e-05
0.000293251457492235
0.000348605087527643
8.32172567187641e-05
5.38960294821237e-05
6.98124476301233e-05
8.07948260708346e-05
5.87368521385448e-05
9.37019619431843e-05
0.000447817216991861
0.000550559673835245
9.5777213946783e-05
8.75193142103724e-05
0.000419540185726753
0.000454764679354258
8.08783884373666e-05
7.61910171522826e-05
0.000495917422553341
0.000570425378149458
7.95940737636719e-05
7.68574846522979e-05
0.000571001968122504
0.000522106750792968
7.24930054468961e-05
0.000507862721109924
0.000360812282144438
0.000410922024620747
0.000383183080740314
0.000434738015216693
0.000508561406485711
0.000626621195442827
0.000111639743965157
9.79929421253819e-05
0.000760909576189387
0.00105687432501248
9.56910152266553e-05
0.000816038866734261
0.000766801846841006
0.000720726113265115
0.00094442695447383
0.000110148266577594
9.55740524004751e-05
0.00097715210071419
0.00097297478360543
9.27777107013387e-05
8.84716419041483e-05
0.000948937389886226
0.000595062632636489
7.66625448804303e-05
6.59906685349363e-05
0.000713603153114325
0.000639877177616293
5.96329775397824e-05
5.95954186084389e-05
0.000727225611127609
0.000593362343463096
6.46358001323972e-05
6.52929625689618e-05
0.000429496101284347
0.000345246052311372
6.14329214417005e-05
5.35178915876578e-05
0.000332311684640893
0.000304342421112291
5.12118792388623e-05
5.02323395711922e-05
0.00025579864322302
0.000220497943376804
5.84190119515216e-05
4.91015783107229e-05
2.9845023381602e-05
4.30295949931435e-05
0.000216323000039414
0.000181940680357912
3.62318541635242e-05
2.86797470589148e-05
0.000196966058026517
0.000190327986528323
2.44244746450171e-05
2.08132881010956e-05
0.000129788242161382
0.000145635356993984
1.61674942580233e-05
1.78977363893948e-05
0.000132779306679927
9.69433131206191e-05
1.99192835766745e-05
1.60110321357078e-05
9.70667701124718e-05
9.47364743838272e-05
1.92151612878675e-05
1.66978075637441e-05
8.55941051729674e-05
8.05960134118441e-05
1.90351142861475e-05
1.69330021577387e-05
8.34630302699804e-05
8.96829663771647e-05
2.75999976047618e-05
2.0797963300126e-05
9.73903606563288e-05
8.18270140284735e-05
2.4914512807781e-05
2.61398259903721e-05
8.70401852119441e-05
9.40019460108779e-05
2.98361151898907e-05
2.77890579852815e-05
8.96286760805763e-05
8.61871643489959e-05
2.08812040373836e-05
2.47585556762159e-05
8.13251781204627e-05
9.26803377797054e-05
2.03077694079447e-05
2.29740446384939e-05
8.94602233385031e-05
8.31835699473178e-05
1.655030325376e-05
1.73100076506402e-05
8.31299716435671e-05
8.75828436732633e-05
1.70443777703697e-05
2.06595244215837e-05
0.000102294617555192
0.000109471538269338
1.6620592693361e-05
2.03622985655503e-05
0.000107109499623177
0.000146083101217629
1.86449896303596e-05
1.78415384887593e-05
0.000182735127650265
0.000153788628908561
1.86662456189452e-05
2.08118524351453e-05
9.6299908697208e-05
0.000102176965691599
1.57616094952914e-05
2.25091261030027e-05
0.000104156918235029
8.96933786908722e-05
1.81147314640944e-05
1.78573095928719e-05
8.17135991253726e-05
7.96159390111591e-05
1.67240219235357e-05
1.96886821262027e-05
9.02543093108149e-05
9.60994869669453e-05
2.07979866173282e-05
2.48798272321581e-05
8.48311384757058e-05
7.92292789226973e-05
1.95873648365624e-05
2.5175468920122e-05
9.49777084312348e-05
9.80517544467787e-05
2.60034968685929e-05
2.46549826910452e-05
8.75101676182617e-05
8.88567644313661e-05
2.60215718960519e-05
2.08510367406429e-05
0.00010378830780383
9.40166336534021e-05
2.10806650143966e-05
1.63196061874766e-05
7.89558297472481e-05
7.91704453574579e-05
1.83404986699555e-05
1.77100879646058e-05
8.81811515933139e-05
9.60182944163087e-05
1.99236209976882e-05
1.56357850365891e-05
9.13282323963709e-05
8.88711098598071e-05
1.97520189240525e-05
1.85128749964588e-05
0.000126944663858772
0.000160720024464318
9.15243083443408e-05
7.98252699169963e-05
6.09879830825508e-05
5.94133372778139e-05
5.97023744189876e-05
6.74060588827518e-05
8.71952112660615e-05
0.000126569841254872
0.000248302606716892
0.000334298288577177
0.000498935045412807
0.000653225485407222
9.51429422268512e-05
9.20585323117399e-05
0.000668817711897047
0.000555369600301981
0.000100822029205902
8.19079681975178e-05
0.000493359064490073
0.000429930239420328
7.27321939554965e-05
7.00758074139946e-05
0.000460655867151728
0.000472245784027633
5.75403207107268e-05
5.6136070606547e-05
0.000519702567526524
0.000410032517237568
6.17375320894529e-05
6.59736471084699e-05
0.000358356222981881
0.000297325136986113
6.49551120116657e-05
5.75400743440185e-05
0.000266706022522025
0.000272677382420109
5.66454957666701e-05
5.2338498836013e-05
0.000212368070540274
0.00019759903256896
4.85472738676678e-05
3.41824203736122e-05
4.49670532250205e-05
3.97863650806757e-05
0.000167951595578279
0.000185797506228637
3.07656829746669e-05
2.28696860183522e-05
0.000154381414691016
0.000166570142378543
1.92070753570838e-05
1.9688349764754e-05
0.000119720130813124
0.000108133647860888
2.18816074820946e-05
2.1537707532777e-05
9.82088425700589e-05
8.36859681375212e-05
2.34682921473144e-05
2.27248643901542e-05
7.51422940942623e-05
6.94828175158102e-05
2.25663991342331e-05
2.29135913554679e-05
6.05839178974526e-05
5.42646407463684e-05
2.4209877174308e-05
2.39724898985898e-05
4.97040755757576e-05
4.53916154651432e-05
2.31987942249239e-05
2.10149351577961e-05
4.31150295303692e-05
4.01449025210851e-05
2.30396731407576e-05
2.46684210027241e-05
4.0538238175854e-05
4.03352778400336e-05
2.4664274585369e-05
2.36961134871624e-05
3.99133908855893e-05
4.12816333630184e-05
2.2695677002494e-05
2.33681720600013e-05
4.1952208123481e-05
4.54282676662359e-05
2.2482337932418e-05
2.50700870445199e-05
4.99434189065433e-05
5.56116741672392e-05
2.38784056643747e-05
2.28748422844158e-05
6.15863430178766e-05
6.68132987911317e-05
2.34150228870138e-05
2.40363800509365e-05
7.66102931982592e-05
8.61075899983119e-05
2.34711680663377e-05
2.40426944810039e-05
9.3868379542775e-05
0.000120159803740704
2.33479273841285e-05
2.20914736496397e-05
0.000118198326319912
0.000116895658579495
2.17127738299548e-05
2.24677279275598e-05
0.000149392856660702
0.000142324821887031
2.85294429492288e-05
3.62543606117424e-05
0.000141352872461866
0.000153390542519682
5.13275812938842e-05
4.91167089943541e-05
0.000173874525155392
0.000183017282935923
6.399569946802e-05
5.32828062287466e-05
0.000223637005042048
0.000251367387543129
6.21432349989342e-05
8.32319699472849e-05
0.000364523001653385
0.000466600433207073
9.54861222594948e-05
9.11421447189372e-05
6.14336363112645e-05
9.86100050132747e-05
0.000614807882058016
0.000752999596604822
9.40868105491391e-05
8.92488087564651e-05
0.000689014816537727
0.000666519812853353
8.33476048781655e-05
8.07543466771889e-05
0.000590673302387642
0.000678026064906068
9.22810695361442e-05
8.08967006558316e-05
0.000732475633656732
0.000958526130897038
8.14139523180744e-05
7.12010692051429e-05
0.000641077162933449
0.000650406475280524
6.57898216110793e-05
8.70937542470556e-05
0.000560714724258853
0.000785881123374369
8.61259313230071e-05
0.000110728084025285
0.00120781599071034
0.00109678241020439
0.000116994733167945
0.000139759859111721
0.000968168772684217
0.000852425639728171
0.000143591499857245
0.000119837081933188
0.000573391351959491
0.000532767167878955
0.000118065853484425
0.000108049477431549
0.000614203248960473
0.000430049357492723
0.000394747514765291
0.000431316403747745
0.000548530229052137
0.000107504970660417
0.000137656645200774
0.000817619791784517
0.000874563685448197
0.000117588774511455
0.000103920654891394
0.000862861815112648
0.000604572933266268
8.49211486575744e-05
7.76119627968692e-05
0.000430969026606472
0.000449222266655504
6.85337559614665e-05
6.11433414326405e-05
0.000429301209881443
0.000477410274401539
6.03372851454653e-05
6.91047398120148e-05
0.000494548224208097
0.000382226786403467
7.59844521419353e-05
7.49056220377934e-05
0.000342819809898767
0.000285297473338763
6.78698847034912e-05
6.82350554453214e-05
0.00031766269737631
0.000225902881027038
5.86864414744627e-05
5.42395283644377e-05
4.35118416515901e-05
6.05138574879768e-05
0.000221598365714963
0.000172000679796341
5.49449385202049e-05
4.7935563566389e-05
0.000186079771387155
0.000182134581394978
4.86109849603213e-05
3.63429231069258e-05
0.000100508575499933
0.000113090434222498
4.83260363320371e-05
4.90514555430828e-05
0.000106404666843499
9.57120950518799e-05
5.12422518405873e-05
4.52103670219101e-05
8.0624491972092e-05
7.84259201403794e-05
4.08705008112581e-05
3.81510827913309e-05
8.15231386213721e-05
7.83265211737712e-05
3.84515252347078e-05
3.71208376696721e-05
6.93098806211963e-05
5.43475681038227e-05
3.54230916435213e-05
3.52561507806095e-05
4.48655311971768e-05
3.83574693731908e-05
3.32203463193312e-05
3.15123118486119e-05
3.47878012027285e-05
3.26994814110174e-05
2.94929196294812e-05
2.89303598256513e-05
3.15683075638571e-05
3.0562391334243e-05
2.74482550985304e-05
2.74952784316317e-05
3.01790398360912e-05
2.97143631582126e-05
2.63211993926585e-05
2.66280992309427e-05
2.9761928005576e-05
2.93446120149395e-05
2.65304839556118e-05
2.63274166391029e-05
2.89066216673918e-05
2.87312372172295e-05
2.73491298471811e-05
2.75919651646759e-05
2.95597471486846e-05
2.95270420467807e-05
2.73382943013799e-05
2.7110189605339e-05
2.88377628015858e-05
2.88880094363532e-05
2.70461589500459e-05
2.71025574012207e-05
2.92876362874257e-05
2.95357027725571e-05
2.63390883409009e-05
2.69539555881911e-05
2.90013275892677e-05
2.94212682234215e-05
2.75030633518941e-05
2.73108445615372e-05
2.98256814728407e-05
3.06050056174005e-05
2.83471504353688e-05
2.82074245597034e-05
3.0965551117015e-05
3.19398302069099e-05
2.97833390742291e-05
3.04728541786019e-05
3.31677063704012e-05
3.54231618015121e-05
3.2528266978359e-05
3.38432074393931e-05
3.90764387825381e-05
4.56382892188199e-05
3.61684230010922e-05
3.67837580332463e-05
5.55049918756633e-05
7.14642401696322e-05
3.89550054240904e-05
4.04022531651228e-05
8.09353641020815e-05
8.66221875657109e-05
4.00131430820306e-05
4.30689238402089e-05
7.98875547386778e-05
8.48323512913413e-05
4.59505147058838e-05
5.24160907486861e-05
0.000106800245307841
0.000117319075716108
5.32336282388891e-05
4.23150366071092e-05
9.55808470321365e-05
9.37385156346815e-05
3.27122558626276e-05
2.94284293062823e-05
0.000103136103420808
0.000101484177913914
2.54043806230734e-05
2.66397405110121e-05
0.000108556575398712
0.000112666102614001
3.14357762702496e-05
3.92041015487936e-05
0.000108639468285242
0.000100923381003205
3.72862428034676e-05
3.25468719707698e-05
8.14074332948769e-05
8.07356699280126e-05
3.74976754158968e-05
3.16494674071829e-05
8.29072479912549e-05
8.08132353264432e-05
3.20633372532518e-05
3.11943045195802e-05
6.93383800251224e-05
5.48549311464463e-05
2.92810258883145e-05
2.89891848200732e-05
4.40009559077671e-05
3.71269653367268e-05
2.67623974583029e-05
2.61410699240716e-05
3.32747213557195e-05
3.0713078656563e-05
2.42991389146665e-05
2.41562675450971e-05
2.9321074598174e-05
2.82340112544884e-05
2.2602548116276e-05
2.29946246399203e-05
2.78121292709126e-05
2.71483349773391e-05
2.20604496258311e-05
2.2420552134644e-05
2.6817444181875e-05
2.63582092804064e-05
2.19882877443018e-05
2.13745664294929e-05
2.67714462997947e-05
2.65477012481986e-05
2.19529413389126e-05
2.2095509828838e-05
2.61117835108159e-05
2.60725494541159e-05
2.21372105296759e-05
2.20486839324365e-05
2.66778088781665e-05
2.67374031199419e-05
2.22461114704401e-05
2.23057203521807e-05
2.61213620453477e-05
2.62801255274935e-05
2.15049095257168e-05
2.15989832542883e-05
2.65929870761118e-05
2.69089469463196e-05
2.16252083319504e-05
2.13478700523935e-05
2.69534859697309e-05
2.74205004748727e-05
2.24724841624005e-05
2.21050468934911e-05
2.78422915420142e-05
2.8856506348847e-05
2.34908855358304e-05
2.35946870776711e-05
3.01253888802479e-05
3.2495732097029e-05
2.54887309178101e-05
2.63592226516e-05
3.62662851691832e-05
4.28252382439718e-05
2.82724280145654e-05
2.8223562328066e-05
5.37906612062309e-05
6.68690801903622e-05
2.98484975346999e-05
3.07689372693508e-05
7.77573589557668e-05
7.87147902744927e-05
3.02700759269074e-05
3.5919701110508e-05
7.98683813912867e-05
7.81900411031593e-05
3.2419562441909e-05
3.05812384317474e-05
8.10905925036194e-05
8.02842138268569e-05
2.63501197465101e-05
2.71075779849994e-05
6.94764277072923e-05
7.01370293197132e-05
2.65710366726951e-05
2.50077950252235e-05
5.32059478023845e-05
4.67329003239001e-05
2.52937779135539e-05
2.34829341936311e-05
3.58748611189517e-05
3.39686944375115e-05
2.32776862488029e-05
2.12913958040027e-05
2.99434821421109e-05
2.92473518351736e-05
2.16768588124252e-05
2.01314917004635e-05
2.76580906747883e-05
2.72576859696304e-05
2.08832888984051e-05
1.95708946630533e-05
2.64755255796723e-05
2.67013078577276e-05
1.99641011058075e-05
1.99683590101423e-05
2.62327498832155e-05
2.58364252294549e-05
1.98829671650769e-05
2.06062867265173e-05
2.54849678344537e-05
2.6433607231073e-05
2.04508930813155e-05
2.02966099103316e-05
2.64466449605007e-05
2.54352281215548e-05
2.05663072354736e-05
2.04918504069916e-05
2.55060451904053e-05
2.61072398183213e-05
2.0281194409274e-05
1.97201777293409e-05
2.62024236769662e-05
2.58010590058398e-05
2.02961920040322e-05
2.07789998126562e-05
2.65526076624931e-05
2.68267728137937e-05