/*--------------------------------*- C++ -*----------------------------------*\
| =========                 |                                                 |
| \\      /  F ield         | OpenFOAM: The Open Source CFD Toolbox           |
|  \\    /   O peration     | Version:  2312                                  |
|   \\  /    A nd           | Website:  www.openfoam.com                      |
|    \\/     M anipulation  |                                                 |
\*---------------------------------------------------------------------------*/
FoamFile
{
    version     2.0;
    format      ascii;
    arch        "LSB;label=32;scalar=64";
    class       volScalarField;
    location    "1900";
    object      omega;
}
// * * * * * * * * * * * * * * * * * * * * * * * * * * * * * * * * * * * * * //

dimensions      [0 0 -1 0 0 0 0];

internalField   nonuniform List<scalar> 
162506
(
1.03451150171038
1.07662030646656
11.7856351834684
12.4495955910515
16.633571510788
14.2585704655662
1.59027316050251
1.21832462590903
12.9040129984352
13.6380659858953
14.1861245378574
1.10881781970637
1.1113164725437
1.01921575122894
1.00298020821168
1.00607051503788
13.0955832807317
12.3548789237733
1.02202797337323
1.46606833316786
1.6657242379164
13.3401689912025
12.7729296346517
16.5121417728787
15.9606933549908
14.2447932306213
14.3964002249071
1.00632410422465
11.81437569375
12.5091827150513
1.00241081387138
1.00026634169982
1.00199750630784
1.00002298818232
0.99989449747721
1.0037990553909
12.2940992929908
11.6840030335014
1.00902096623867
1.61902029116836
11.6729973768764
11.6196994360784
1.47102072374757
1.6796563899259
12.4313225320603
12.0560067094996
1.13995659003554
1.65960040438785
14.518125648609
17.1148227753259
12.4965713320957
12.7377037114554
17.8384618289023
14.9943030656776
1.81332584157704
1.52611262660183
13.6490031551143
13.1535643371517
1.44843249570353
2.41222060754701
13.8170722822514
12.6470114642733
1.60132930626374
1.03329002788779
1.00676604070161
13.9019360232206
13.0361244262377
11.6869158446839
12.002458084505
1.0021633635763
1.00816405779862
1.00253189570444
1.00060275270892
1.00199233688693
1.00655197867015
1.00760929389418
1.12008337519691
1.31298959679891
1.84972006738727
11.9884520444465
11.953260440516
1.53240073736907
1.00559835057631
1.0017902600325
11.8114412068198
11.6054414598451
13.1762209859095
13.9108967714701
1.00388379966329
1.01000375335953
1.00011770526322
1.00011100762631
0.999955660885733
1.00000187565834
1.00047024382738
1.00002770757767
0.999912178259661
0.99983947675894
0.999860234578926
0.999923106479383
0.999913036183522
1.00004737635324
1.00906715619517
11.6805824914709
12.2896222734532
1.00372067906829
1.00227572315802
12.496594253597
11.8041478848287
1.00620009465439
1.46888022002385
11.6100199748116
11.6697584360364
1.61850809575904
1.88056981220625
12.7244948463676
12.7292528867832
1.88180807334511
2.02043004387939
13.4199643998477
13.0096081304226
1.80743085466921
1.21735437415463
12.3969393612817
13.533848077599
2.28593566799629
3.11166566343701
16.230917608443
18.9490437989552
13.5103134719212
15.8230963046086
21.7773468714542
19.4480077759365
5.72827034102712
3.60462924073888
16.8257512932316
14.6522857012533
2.33573120547164
2.66059761027605
15.5961477025411
14.906529479049
2.43032675544449
2.66618257125102
14.6605843880678
13.5245931682688
2.52094279899434
1.83661340527984
13.2115018764414
15.2974364758788
3.19405972746623
2.07702730910693
13.2957414031301
13.6020686419717
1.88366920149472
1.0132197730793
1.00525598641848
14.9669423899431
13.9111835801103
12.8154070598045
13.625356409594
1.00477212328961
1.01060971468444
0.99992515038073
0.999940206989234
0.999911647781376
0.999769574977298
0.999802981765361
0.999922040222306
0.999975891620096
0.999986194406011
1.00050466888482
1.00007366531756
1.00035599987458
1.00213494761268
1.01995809345883
1.00330915563918
1.00433203140559
13.0739494149567
12.3333041878508
1.01948436640896
1.0703596372437
11.7628797252019
12.0304693747903
1.13312405514622
1.67636457055098
12.4187725589859
12.9948429768364
1.80500069803685
2.01897363989643
13.4132755196944
14.6137025624834
2.73501152897038
2.74788771992806
14.6352643317991
14.1965469104242
2.60862330220059
4.38031045187626
17.4532111445878
16.5670926494342
4.19650057428604
4.8690177314685
19.8262599091641
20.3775734171227
7.56518207172624
8.23106455769491
22.4226117687587
24.5387372103794
7.94554659914174
5.94794969023258
22.6293777866333
24.4155528256084
6.83575699737218
8.93990020889834
32.1975268640841
38.3473729490252
11.0841664320607
12.3822870171859
34.4617443883257
37.3122363396979
54.1382119143878
32.0018960470869
13.9698363248468
12.6389223275815
30.0772022066448
28.5537552951124
12.2448547370413
11.8795651287556
29.9721787309175
40.5647084802648
29.148414203911
27.4414558269367
9.20552279064082
23.9757968648513
32.5244801738418
28.6462909543188
19.672227823126
7.81890600259931
24.4908143137398
20.6068784696417
6.08287771662255
4.32474142215518
18.8775415471094
16.6885308522608
3.19991094495698
2.95985770110462
16.0787471796319
15.2883827429876
2.75582322417347
2.07571350452955
14.8633722229955
14.1534852202477
1.98353400761017
3.52581311653752
17.1323344188574
17.137941246575
3.48581473525446
3.09091958157697
15.3369713773555
13.2263775730322
1.69013473468474
1.3200323296755
12.4084187782826
12.401425253206
1.32872114048726
1.01034395099327
12.8009993827111
13.6086987871529
1.00482129329735
0.999955127526229
1.000051236231
1.00101022426436
1.00003226383732
1.00459146172272
1.0169631408586
13.8699302388942
14.9182942060331
13.8559396164577
1.00534186417133
1.01138102399766
13.1299495597934
13.2725958910288
2.09852573588881
1.54314417277423
11.944008394129
11.9906310503
1.8563514158444
1.007902788649
1.00225610786837
11.9725405322462
11.671559473332
11.579455009741
11.7742794657581
1.00203031538838
1.0059100881505
13.0125232358839
1.03252485952157
1.0064354530599
13.8643168185146
14.1613283678731
1.10204435834329
1.10379132087169
13.4366361781088
12.7321860918441
1.31369691601524
2.01800181931758
12.5954318248536
16.0140904556241
13.5478548891039
13.267185257878
13.7992790558728
1.16681137440421
1.1513818100078
13.113116318353
13.4797177964232
15.4106460644639
15.3805359783911
14.4627939502981
17.0622305571258
12.4681531737685
2.09642509215727
1.55147065844424
13.1431944867402
13.6570869810175
1.65304553280406
2.26258116563764
12.7038599484848
17.7920603074401
14.9512359981735
16.2934143325708
18.9427554855269
13.6840725527908
3.75512544162829
2.36339473081267
13.5186558456215
14.1596715597564
2.59240503465572
4.35627545736294
17.2877601517947
17.8695751334922
4.46164302025181
4.48549811078404
17.9414423587948
25.4998644383877
7.22182684127679
9.75643856616801
36.5057932564609
44.8664058221427
11.2439556201854
10.8287586632411
43.1601324237481
52.0920638905915
16.2507321117881
16.100206443211
46.9554877183972
40.6747000100476
15.5409945833501
13.9857785514552
34.4362664218315
56.5134789362677
41.221653466489
43.8619100770162
54.5482243160059
36.052707360094
15.0809169576479
12.9393846975698
34.7742635694105
32.4201713672216
12.803625093864
12.0707345161194
33.9712638751095
32.0832514256873
10.4324514660666
8.95287294656347
26.6986922001649
23.8998480725721
6.92382043026513
6.4791749256088
23.8072746833085
21.7574192504757
5.71746437070877
3.67185800608524
17.6668739696083
16.8705729705139
2.6216432579088
2.19035792260664
15.6088465110079
19.5022723174165
3.86921250242721
3.73976417084387
18.3531740822565
18.3337675685599
3.74553709376588
2.04822629832624
14.8214523398736
14.0847841225034
1.9117412843274
1.91592873701937
14.0793626222498
13.2250048357459
1.69043227818599
3.10442503457889
15.3372082320482
13.5831059214521
1.9102175529339
1.25922629577101
1.00128802263183
1.01041963384958
1.01817106271022
1.00081989029802
1.00030758104574
1.00016533000428
1.30022416235195
1.11919344580535
1.35729466402025
3.21760955793996
15.2979868714231
13.209230123176
1.84653821070156
2.52976059287497
13.5313942017506
13.8231916409144
2.43045553658112
2.47205301521249
14.929664425956
15.6585103176884
2.76004220676712
2.55228887800533
14.730094669588
17.1685531409933
4.02699208035596
6.29874383339529
16.4061686054637
21.8708648193775
19.6319275354811
25.0733296235724
28.845892302717
20.9198984062044
8.65683383526732
8.15125251760872
21.010708854298
19.7414894919109
4.89570699985523
5.97749235093515
22.1123499628184
24.7820622758237
8.62716654142882
8.89706866712783
23.5316351501356
26.007000938838
10.0167474325374
29.1686729790488
33.529654396512
43.4679535199968
32.4679088682672
13.5294038672846
32.8248077521594
34.4755489456912
14.8064695553365
15.9708685582797
39.0586478652573
39.4440264378866
57.6530768630958
41.1131193291501
17.5164172662284
14.9899387814088
36.2257583642463
38.1869267499089
13.0359756278692
11.8962035543799
42.5459966674777
44.1945589219743
11.7013055896822
11.3352377566318
45.0372826202216
45.3480814901727
11.2928364083876
17.4202110243266
54.1898673050936
54.0371757959394
17.244625978341
23.348647313105
71.4080779450263
70.0013617630313
22.3444427429011
21.5126595003676
67.1428759299519
62.6354113594249
20.6829105063699
18.4593200569329
57.2294159264935
50.6731016263427
18.5465225170659
20.952231807524
59.5350982429723
47.0138127182792
56.0144594191843
37.8578882269986
15.9114983937311
13.190177543568
36.449122447229
40.2651157864815
12.3543645400183
11.2927771913535
38.4665072478749
36.0895886994998
11.1355714920806
8.26579246660392
30.4490689193434
27.8445774404072
7.59314923748649
5.116821541944
3.3185309109864
1.67696200662387
1.78023442696046
2.29302649619944
4.54842692357443
23.4465277023725
22.5422171731366
4.7001691502566
4.45788211547375
24.4092516666956
26.6804946740342
4.93955114243656
4.90126243343552
26.0806132552606
28.2895273762134
7.4880027195646
7.2372387016402
29.0031388314491
30.3148746042894
7.14978483236099
8.75554453031005
33.1838957478033
30.6037695088815
9.06135983116567
7.05123460780904
27.3167202561788
4.74702620755847
9.43925571409537
30.5869680349342
38.1764193246496
11.79336662344
11.1792011876377
37.0491607493975
31.2547108143968
7.74508852217951
4.8460978876813
25.4125723621185
25.6192988098595
4.79478662829006
4.82567267631867
24.6200080517417
22.5845740045704
4.6921577995905
3.97866723370019
20.6809675725511
20.6445290596828
4.00328651408404
3.88738829632626
19.4683339244909
15.5074336494406
2.12246358483206
2.12947892058406
15.492934977155
14.8127184923052
2.05690864352784
3.76000945917668
18.3120040722079
17.1300892268721
3.50282146477622
3.53833352615559
17.1283017165928
14.1430996552132
1.99325465294851
2.67844422782574
14.6655896412868
15.2818595385263
2.7580574302412
2.94219153360895
16.0348042386647
16.9463044407802
3.51369525211624
4.74526719733047
19.4353613811424
21.5864469203432
6.78875378261658
10.0434916349325
28.8417313106798
31.7879528838466
13.5130666899018
15.0202407426079
40.8201279434554
43.2491114283414
16.7970583548641
16.4156026863178
42.3817263619301
47.153056781592
20.7872765388732
20.8365361547426
49.8184109525482
47.535700038926
18.0410572938994
19.6509755191637
52.3307052683316
61.8649906256717
85.4114911510453
76.2920385558621
27.927099512829
30.6896599197744
78.2891345917503
71.3666867195918
28.6160987621493
23.7693767243952
68.0226397325118
85.5396141455503
55.5440417531544
49.1745560865688
73.4745857436033
53.471681987844
23.5456976204946
21.6420979042511
48.6657847437773
49.2829667008992
19.1600027154584
17.6701864653132
52.2890594750625
53.3299540444493
17.7651534174245
17.5236013947494
53.8435386718775
70.4459781477344
24.2172597055917
24.3449433049578
70.8187967232698
71.1282528246619
23.7021352507463
23.8433158141071
71.1739525048509
96.3631566247304
34.5792592644193
33.8784127896692
97.0488834548353
95.7655855277109
32.5650487097346
30.6826586752313
90.7239297363857
79.0964697371746
26.2232537410956
20.5291576719189
66.0006275686221
73.8017245870543
22.9464672293196
23.3491537217137
80.7370647315859
83.7876174949945
24.3299976507236
22.094475871686
65.30701509437
49.364809113132
58.1645086616064
39.2758633599945
16.6812046919264
13.4828400226205
37.899844893358
42.2952210566254
12.6097323451965
11.4104912901178
40.3311012817832
34.3253235958648
9.19903945449149
8.64924988806249
32.8793784436874
5.82420570036862
4.05707583754624
3.84287024011147
4.6032604687676
2.65929493340057
2.2988523546178
2.06313188850338
2.22856739235484
1.45131834575556
1.27251146810329
2.34865872375566
17.5292936677866
16.8676917442601
2.23264715665752
2.1697885344483
16.1810429850078
16.1472514106557
2.15324885863142
3.97510940641678
20.4910432313845
19.4159744689346
3.90508491232217
3.82420341694997
19.4295272480785
15.5312520940277
2.18299166061138
2.89736697467224
17.1087336922786
18.0302760071871
4.05208827037493
6.48930215503872
23.3511497604319
25.7298211234097
7.96638183135814
7.66118335415095
25.6651415454927
30.3760000485013
8.71345101209767
11.6667421068072
35.3627789831379
40.274149264033
11.9818879545389
16.3071735507183
48.362233711361
56.2099352856762
18.9527714983951
29.3444809818955
83.4762603206339
96.8263960827149
67.1667564318952
65.9368114910791
95.6111489468805
90.4604397951707
30.6094678186797
36.3408117037205
105.460284048098
106.087204027132
42.1743204966603
41.2245468652661
107.556686131978
131.39574150672
46.1229737510823
53.1641613776061
147.584534389304
142.413050487473
50.8728536755383
51.9970549396988
141.385139896253
143.797413308582
52.5157500865258
52.3963261992424
143.926801989081
145.018528859175
52.3349606220974
52.5707519378017
145.250577679766
145.556774102952
52.7634519526523
52.0779690705085
146.106282209539
146.239758521841
51.5371011516858
50.2719388377886
148.137976018634
151.470197680978
50.3402952993216
41.4325313908137
131.417757607503
96.5430048226149
30.6192380870355
32.1077853954304
108.313988945967
113.734005411591
33.8224202084623
36.1168404857748
120.513160026536
86.6153944190761
24.7225937216033
25.9846445535472
90.2477417017261
69.9024347743582
23.1954694069424
17.3776599210323
40.7938051242213
61.4852170627339
51.7831142167684
54.4761673413553
65.6011624898553
42.8253277177051
17.9023333485614
14.2902712266981
41.4653764256377
39.4150421401473
13.7627798852306
12.9697827203413
44.3949666296404
42.2870283126677
11.5915444375478
9.43698615394444
36.3333365883536
36.5978730619076
10.6977190143737
10.344287275572
33.8867735567051
5.7211220850203
6.36116890214521
4.98211618603077
2.31408878508886
2.4812035263165
2.20192943456284
4.32150304422691
24.3355215995776
23.2235403863827
4.20933044516399
4.13144718085102
21.9532419168655
1.91441881059225
1.16201381372169
1.14771100415446
2.21397461859166
16.7715855145981
21.5703425645555
4.02312935688825
4.03195942013637
21.7662113321806
19.7543296632268
3.56329972356671
4.47945751271951
23.1043229233111
28.0426973380013
6.95377455942137
8.82400878527205
33.1647273301652
33.8773516881311
10.507549017681
9.04016704948018
31.3621488035002
33.1522727617902
9.31353160336767
9.79465231914208
35.5299777111066
43.026623433586
12.5334663205756
17.3007381864368
52.3138697196066
55.2908149205734
19.3623582320965
19.594771263683
57.3788786094434
67.0143374443081
97.1076257398648
95.2682998060768
31.6810694213331
37.9074562425511
113.881910902206
127.133602187724
48.1583345073245
53.8980653984961
146.719893770311
192.670573637492
59.6777364526003
65.893368165632
258.22441925436
295.099273205898
66.8623669643357
70.6896884507467
283.717984635548
277.239574666907
68.4176109820308
70.4985099719437
277.800035660462
276.990856724991
70.9527959670175
73.6792672241779
280.317618503612
284.98783838663
72.8859922818394
72.5359957473939
286.318336982615
286.231693958249
70.9625343177266
73.7439689145628
287.301246988027
289.907889902753
72.887165513463
71.7504003778616
290.091595293992
290.141264305822
72.697338239114
73.3818192757496
289.757653636801
289.254288222633
74.7076050918618
72.0931412512257
288.053182693081
288.423007011322
72.8255391664141
72.4567292396998
286.613753837504
284.157599166016
73.0762665248659
70.4304426940021
281.257926928171
282.263930070525
69.6487840146592
67.0794136152423
281.872426197298
287.210602589561
67.8178513482543
63.7533234298684
298.842620784785
259.130755526667
62.4444517569613
61.9907835944796
247.734788020329
238.771324560688
66.3012344422611
64.9411364353325
232.990227586915
230.22440883861
67.3437719625612
67.0271283854246
227.438254375659
227.756790197873
69.7240828892857
68.7100714224873
228.148806439771
228.374227076529
69.6200955802828
68.4413397985345
227.495240798859
227.749143370653
70.3217063672116
69.3417399674597
227.561701179923
227.718733792321
68.9163550561445
68.2732908671485
227.468053716192
227.229042834596
68.8016363392993
69.2250387863033
225.630394218868
225.168797420909
67.644628057997
69.2689704412469
225.508878009873
224.942944660179
69.0377690244252
69.8501958584446
221.687281501652
220.499725039245
67.173743600837
67.7253105493437
222.218079222869
224.419483563512
65.7317006999749
68.8769865319808
230.97170764066
242.155278875521
65.1563710034408
66.3922174952386
36.5846586780205
23.942269117589
13.299201601886
10.5589380197632
7.12112467125146
6.0110554487536
3.57295495106116
2.80082948279857
2.46873196893801
1.85856068504508
1.80227436809996
4.13581378683332
22.6569542634156
23.3843084930762
4.32665321855811
4.54519202300995
24.9493192936686
25.1188199908129
5.06174372024447
6.76681207531321
32.4938194553735
30.9133355640357
6.54146515483922
9.70632938311303
38.6437276734478
39.9233865641007
11.5085626995577
9.66674566892532
34.4530223485472
36.6065299307587
10.0069504912224
10.3534552197462
37.3055527841498
45.2932241033926
13.4488909984526
19.0720557055687
57.76391701166
62.8681129343571
21.2156133879356
34.986265313528
75.5390031845409
105.862944662997
95.3240204805564
123.215203497697
39.69998691623
50.1051382917835
144.619028668805
191.959642990043
56.9174864096918
72.4686147604646
290.983501624934
333.510603213571
73.3954998468907
73.9659959480076
314.909810638724
298.778474955938
71.3085909388587
77.1421234562711
292.078830633741
288.659878917364
77.9911467294628
82.2517179395442
294.687570457076
299.821716230422
87.0343398589618
92.3442991647786
305.72135143087
309.681872162581
95.2396293256904
98.8322325929493
310.50227071853
310.958531485959
101.311769867122
108.588207508766
312.91382203444
316.47374099313
107.248410939723
106.268695031978
316.201125828548
315.76239926299
108.013986487851
106.318274696073
315.337010399407
314.039032160865
106.445331917013
99.9776927434965
312.224904654104
311.942536222518
95.2324950336789
90.8858821304194
309.678350781207
305.087332590342
87.7682782116602
83.4152774089045
297.835528707643
290.3742874738
79.0594853563363
74.3559897552825
285.149257107409
294.749575200827
72.7961770444288
67.9371545950738
311.174175898624
256.593111215601
59.2896668372485
57.6903841567159
251.848832109307
165.970163101561
44.0703077369734
47.2732626624344
174.483556859883
189.658601064368
50.5059892120733
53.9044835428835
212.517822399799
129.270444833034
38.3915996669518
40.6178295904963
140.957590346542
93.5972829301123
26.2766249981359
27.3322085417973
98.5203885998486
75.2130236327174
24.0966643438536
24.621097956959
80.7265047444959
59.0920415719262
73.2849562879631
48.9250066893688
21.0636633616703
17.1541128702037
48.0446957248667
51.6550677435439
16.1201507131087
13.4823839619164
48.5273206208924
44.4205953806466
11.8040098082286
9.65160497035144
38.1641273845062
38.5778162712251
10.7734217891891
12.2297507548634
45.724470470772
43.2679409440116
12.2543882521983
11.3732500710652
42.1431022221051
33.3179192130934
7.09982401074035
7.11514063167893
34.2657934335531
28.4590095917254
5.77136460385322
6.21832901444001
28.4570049685021
25.6361116140291
4.48400699701984
2.57635512234965
18.8750613539153
18.1428299459398
2.4899515249121
2.50547870546818
17.9956491102689
17.3750983418067
2.34164430631026
1.27913286390721
1.47432970101309
2.00331120486146
4.31552192535935
23.798348566383
25.3020513214878
4.58837625860565
6.27780845640787
28.1432087875378
28.3050368182446
6.16195380422967
6.64529228136094
34.3885147633306
33.4314616300107
6.50610010269639
10.1148941502874
43.6771042317995
41.693877692424
9.94513344258856
11.7480178667698
43.0869766916865
45.4256676129874
11.8705717765801
10.2935633635341
38.2786742036231
38.9183231578455
10.8267591604104
14.3185579679938
47.6417147717695
62.7654500464368
20.1210522609192
22.1169933983031
71.3771118141933
90.4918872807558
125.807849859035
101.559381057451
37.2893408825852
42.8252052462465
144.559980962706
173.312332216295
54.3040011406491
63.1287095591831
237.036057120096
343.549839345447
73.6326049872375
93.406296603652
452.243750158112
422.257932568571
96.0373916708609
106.34398924262
424.944269312705
504.330940132425
133.531338940429
169.947261324855
641.588611432559
799.819646581524
202.000824088619
215.668664995787
845.4674499897
859.932341384634
225.926234262705
241.018719640947
863.277193822322
867.247923919255
262.737996675057
284.717220290205
865.437006215637
863.88910064184
304.397883319493
318.873912335109
857.966728931941
856.384953496401
331.597861962587
340.410019785334
850.282155875908
851.170474522957
349.500386456917
354.711714743962
847.992596548629
852.152668466074
361.900881135969
369.832724139391
852.5802302594
858.329577624306
377.850962709191
376.865108855961
866.858190713858
869.825207958312
371.493752221397
368.903934336834
865.742601710465
863.940374276581
376.360392882893
380.385311754322
863.609941828605
861.663215023285
373.336292815326
372.058467527157
865.534167367548
862.157505714857
370.34662607479
369.477690882326
864.670383329036
861.209556908876
361.241485267531
352.785255916153
862.883783524703
860.950159064085
342.998642712198
332.883012227399
866.121428430193
867.263033082172
318.975687651844
303.450291970712
874.625050309232
877.119795743927
283.188451383359
262.783936170734
881.506085510103
879.535468791998
242.656033629283
228.603483570702
876.481427085861
860.31345910035
218.12604608228
203.059181594647
810.603793413523
646.210234412929
170.823724940641
136.054359965149
518.126408622643
458.978353575109
111.153908990675
93.6252307971273
459.050788356347
325.562606686384
67.2526495524999
63.2335590287678
298.865083114233
281.407409532717
61.6910358314982
58.9668278782595
265.33907851882
335.549704290047
71.236618376398
77.9665187410456
367.147061727904
408.056223438775
84.1177132314617
100.048352979929
400.173911543898
434.942925266392
121.838718757501
161.021233184718
586.850649387236
704.658548220674
194.541842230565
207.450072905755
741.583773667522
755.931687028644
216.661247497517
224.6205732789
761.991142396356
768.116473615966
239.834189500237
255.803477380701
765.786656056028
767.689598326229
273.603605168505
287.768959391201
761.860557454372
763.996209033143
301.083117107307
310.772854119999
759.191054968476
762.85695811492
320.309548723466
328.110108418881
761.358576381362
765.378821710903
336.23030563259
337.133821313306
764.098374968416
767.01989608616
339.766462704987
340.748585098035
763.895459694005
765.852509607268
347.154685221845
343.201178936968
766.401875904016
767.081354962331
337.236725336464
339.585847323956
770.297368194423
768.507091566335
343.316094394888
344.217138305121
760.583457550987
756.116293214666
337.022738897506
329.336167271065
755.130974234287
750.955441750517
322.31474537588
317.437968285156
753.925074971042
751.098253040921
308.269803475138
300.129937741839
756.653096271028
754.970878345699
287.955624701362
274.696557851121
759.332611771324
756.919179117191
257.477001965766
239.550916161202
756.804104014489
749.492134510241
222.766241737263
213.895333961354
743.61071616513
730.213979648118
205.097274554338
193.004157365508
696.071674307142
582.112978693452
160.033230043733
118.53631010369
425.955703820606
482.742193523442
148.213516620896
174.384331081946
546.353624549868
567.369544740546
184.660496075037
192.607833952694
578.258507937551
582.298676976202
199.699830160401
212.13314234766
589.154600327243
589.366703800241
226.097358343842
237.836261046006
594.567008400722
591.81778872331
248.641906893488
258.557106166407
595.679599796756
591.097714074883
265.673542589121
274.013044126985
594.716578943558
592.378270220334
278.534506510724
284.586372762251
595.750380236287
597.137126245046
292.069583770403
297.95482779556
599.872524255582
606.451265766028
297.079249211066
295.206037811669
607.471627107453
605.207987629545
293.134209504052
296.929236843192
605.052188486305
604.427993619676
300.590682016912
295.810361596574
603.050702062913
605.230013451954
295.086817258652
291.623695726859
602.970857644084
603.241235622618
290.910270647613
283.57325748687
599.707974664253
600.794798871552
276.490444896705
268.276047589914
596.539423095654
600.554478512757
259.49399172678
248.664061446547
596.209844467798
600.347585181749
237.214731045711
224.773858943135
595.006774786705
597.104719352197
212.773749433657
201.132020848154
590.559663602343
586.286819577677
195.094996206728
186.900812190845
575.441403745531
553.561535039808
176.269803396059
149.363486249085
487.684781490912
400.184451903246
127.67236357223
99.8601560417167
355.214919070267
353.726368315553
88.3699720021165
79.0676291524622
319.193433365174
311.025585732186
82.9508677122208
90.5370440828811
321.73929551161
334.058212709904
96.6919449944944
141.358545065448
426.424044586652
436.045287510797
152.711237467466
170.45896375307
438.655069462228
439.376054372669
189.464417848096
205.878641816417
439.426148187276
441.519633461809
219.13218103172
224.239446141825
443.478995155337
443.490062614194
228.482864386348
226.126429095681
444.481818959783
445.566191812684
226.953770678646
226.290490087565
439.614507298342
436.400526487773
214.328583738547
203.698809836536
435.637876574251
436.097581173399
189.421398537751
171.803896168472
434.504801548078
429.777721768035
152.71193718448
139.776751635425
420.245971450149
396.017807280896
125.704215724363
97.7265651114831
351.472860919365
332.895564269446
82.6648788353239
94.6687123606278
372.38353284197
375.96097367725
87.7578095184639
84.7468791050197
403.137597869989
315.673446560437
70.6644785384484
60.0972001860768
208.487845281953
298.655458971826
70.7140533181644
79.4060244977751
365.462214379897
341.494591912739
80.2674624638761
76.0781164628047
321.617898186486
309.981803464397
75.6169981743385
83.0502666570552
313.644071071674
319.543236720124
89.0549645224167
95.2955404711847
329.356669964644
335.583204415154
103.439701260253
115.326336975541
338.831533666871
339.783908718751
125.713115809535
134.802625762539
339.135445204005
339.068922722795
141.650412796156
151.231534308224
341.201710813539
344.926803517358
151.151839994376
150.473237987777
344.477627270562
343.899800775069
152.170619459272
149.075834809526
343.504277751841
342.624023517055
146.35116879684
136.567158696726
341.451104063775
342.390007312767
125.656171839427
113.816516365999
342.434673918911
341.171553001182
103.384145020459
99.9581993407905
84.3736329597791
80.5374320403094
75.859312233253
72.9210417990536
63.0085823031154
59.6665857494533
55.5553055831232
53.403353465562
43.9963741062202
41.9523220231681
38.1368625840121
36.722169490821
34.0664331392377
32.37982101227
30.5852716443747
29.2853460755522
27.1761318436638
25.4689413511565
23.5519304611787
21.9150804016133
20.1246948250376
18.3397386485384
16.3064132383589
14.6929724077788
10.2755870620117
11.5542657611219
9.23432685595879
5.88449838758762
2.86565060098762
2.03194360512508
1.42543161942485
1.54008460953519
1.62311273344723
2.63620800676816
18.7887602450034
20.7416271004531
3.89647153923671
6.81285498471175
28.9048206959456
37.5528576199275
10.8096247181567
8.29715200470717
36.1597403604684
36.970076858262
7.00213574837859
6.57081252195777
35.3627085446892
47.4440811392489
10.1393711409446
10.2158614055242
45.6470626149954
47.7104906048031
11.9669693117728
11.3666406092204
40.9903167823305
42.1370632358325
12.2098417951511
15.0282847180005
51.2872401852176
67.7531407091075
20.8171529359148
22.7156249708148
77.3092462437722
100.155324064709
144.756873664808
114.967604836601
39.0280143881797
45.1564188308786
172.707796180304
223.703477168915
58.5243350989481
69.3109682287573
362.218780368919
552.629405917356
84.7571896721506
139.616748175223
826.256791673293
775.337773164113
141.496085809952
170.463316708036
835.975224618078
1112.93006460435
216.518967179215
295.555477717461
1600.47714991049
2128.21237106752
401.130692831683
436.241343407646
2238.41151854436
2241.68598362033
436.670938042917
444.121563994458
2197.44871419929
2125.87224743333
461.516883907781
481.562002175753
2080.01345534721
2110.6791054552
472.055311666417
443.103476575387
2159.62037792479
2194.37504340113
416.833319192343
409.212511675823
2219.33062722522
2225.73832562878
405.773651316412
409.503187367885
2231.26318776604
2233.65506919417
409.010864377073
411.540908377755
2226.10696314307
2241.91028301654
417.503624691352
416.531442010036
2247.7844810126
2275.27527416362
416.90424918235
412.915345877884
2265.98271761702
2245.37176609966
413.011911482979
416.864688533604
2247.58340467887
2249.03072982245
413.859352779826
415.37648973398
2259.41074710362
2245.91504693334
415.498338854998
415.496485471647
2256.31433939511
2259.97269939236
413.802128584928
410.015566171441
2255.66469404618
2247.87050971493
412.120745673768
418.856224662227
2222.31546663252
2187.2294152793
444.364100001379
474.983383567152
2142.67376494295
2116.30688117587
485.187797947004
468.007948863456
2166.04343591192
2239.02595105795
455.449881576984
453.708900927231
2282.89878440689
2273.92463760322
454.382000810061
411.23296196745
2150.67416576747
1606.76828567372
297.737722234364
217.330026514631
1146.87413150559
908.207867158608
168.867019783185
144.382576208224
843.187968568159
524.664140753834
83.0554402397597
76.68896266376
449.016908418689
401.132785437164
74.5549849138516
69.4066500154702
353.91752278051
529.366273047469
101.280570672592
114.171447606981
620.689620409208
726.81182457149
125.569105375858
149.906921390124
766.033354400902