/*--------------------------------*- C++ -*----------------------------------*\
  =========                 |
  \\      /  F ield         | OpenFOAM: The Open Source CFD Toolbox
   \\    /   O peration     | Website:  https://openfoam.org
    \\  /    A nd           | Version:  13
     \\/     M anipulation  |
\*---------------------------------------------------------------------------*/
FoamFile
{
    format      ascii;
    class       volScalarField;
    location    "10";
    object      nut;
}
// * * * * * * * * * * * * * * * * * * * * * * * * * * * * * * * * * * * * * //

dimensions      [0 2 -1 0 0 0 0];

internalField   nonuniform List<scalar> 
54636
(
0.0248058
0.0155459
0.0112606
0.00893475
0.00752982
0.00665115
0.0060992
0.00575655
0.00554803
0.00542351
0.00535001
0.00530618
0.00527863
0.00525947
0.00524436
0.00523139
0.00522031
0.00521148
0.0052091
0.00521536
0.00522773
0.00524381
0.0052591
0.00527081
0.00527862
0.00528269
0.00528424
0.00528424
0.00528316
0.00528174
0.00528032
0.0052789
0.00527775
0.00527695
0.00527614
0.0052756
0.00527514
0.00527468
0.00527439
0.00527421
0.00527425
0.00527414
0.00527406
0.00527402
0.00527399
0.00527397
0.00527396
0.00527395
0.00527395
0.00527394
0.00527394
0.00527394
0.00527394
0.00527394
0.00527394
0.00527394
0.00527394
0.00527394
0.0052739
0.00527083
0.0407482
0.0343249
0.0298557
0.0266765
0.0244014
0.0227864
0.0216609
0.0208953
0.0203869
0.0200569
0.0198443
0.0197053
0.0196097
0.019542
0.019492
0.0194604
0.0194449
0.0194409
0.0194481
0.0194691
0.0194994
0.0195349
0.0195674
0.0195925
0.0196091
0.0196184
0.0196227
0.0196235
0.0196228
0.0196211
0.0196189
0.0196172
0.019615
0.0196136
0.0196124
0.0196113
0.0196104
0.0196098
0.0196093
0.0196089
0.0196086
0.0196084
0.0196082
0.0196081
0.019608
0.019608
0.0196079
0.0196079
0.0196079
0.0196079
0.0196079
0.0196079
0.0196079
0.0196079
0.0196079
0.0196079
0.0196079
0.0196079
0.0196076
0.0195911
0.0457532
0.042069
0.0390549
0.0366567
0.034803
0.0334155
0.0324103
0.0317054
0.0312262
0.0309082
0.0306992
0.0305591
0.0304617
0.0304159
0.0304087
0.0304341
0.0304778
0.0305256
0.0305716
0.030624
0.0306739
0.0306996
0.0306996
0.0306796
0.0306474
0.0306116
0.0305773
0.030548
0.0305246
0.0305069
0.030494
0.0304847
0.0304782
0.0304736
0.0304705
0.0304684
0.0304668
0.0304657
0.0304649
0.0304643
0.030464
0.0304637
0.0304635
0.0304633
0.0304632
0.0304631
0.0304631
0.030463
0.030463
0.030463
0.030463
0.030463
0.030463
0.030463
0.030463
0.030463
0.030463
0.030463
0.0304625
0.0304384
0.0476938
0.0455266
0.0436207
0.0420156
0.0407216
0.0397219
0.0389806
0.0384518
0.0380874
0.0378435
0.0376828
0.0375758
0.0375226
0.0377723
0.0381066
0.0384242
0.0386754
0.0388641
0.0389836
0.0390709
0.0391303
0.0389335
0.0386924
0.0384448
0.0382164
0.0380217
0.0378658
0.0377478
0.0376622
0.0376027
0.0375624
0.0375361
0.0375191
0.0375083
0.0375015
0.0374973
0.0374946
0.0374929
0.0374916
0.037491
0.0374904
0.0374901
0.0374899
0.0374898
0.0374897
0.0374896
0.0374895
0.0374895
0.0374895
0.0374895
0.0374895
0.0374895
0.0374895
0.0374895
0.0374895
0.0374895
0.0374895
0.0374894
0.0374889
0.0374656
0.0485787
0.0472068
0.0459661
0.0448954
0.044015
0.0433244
0.0428066
0.0424342
0.0421764
0.0420042
0.0418925
0.0418266
0.0419937
0.0424143
0.0436387
0.0444907
0.0448706
0.0450571
0.0451345
0.0451392
0.0451394
0.0452477
0.0444466
0.0437714
0.0432204
0.0427867
0.0424587
0.0422202
0.0420532
0.0419401
0.0418659
0.0418186
0.0417891
0.0417709
0.04176
0.0417535
0.0417496
0.0417471
0.0417457
0.0417449
0.0417443
0.0417439
0.0417437
0.0417435
0.0417434
0.0417434
0.0417433
0.0417433
0.0417433
0.0417433
0.0417433
0.0417433
0.0417433
0.0417433
0.0417433
0.0417433
0.0417433
0.0417432
0.0417428
0.0417238
0.0490416
0.048108
0.0472553
0.0465127
0.0458978
0.0454129
0.045048
0.044785
0.0446031
0.0444824
0.0444064
0.0443822
0.0447356
0.0458947
0.0476999
0.0484587
0.0481918
0.0483075
0.0485879
0.0482589
0.0481978
0.0477446
0.0470069
0.0463625
0.0458214
0.045386
0.0450504
0.0448025
0.0446265
0.0445061
0.0444263
0.044375
0.0443428
0.044323
0.0443111
0.044304
0.0442998
0.0442973
0.0442958
0.0442949
0.0442943
0.044294
0.0442938
0.0442936
0.0442935
0.0442935
0.0442934
0.0442934
0.0442934
0.0442934
0.0442934
0.0442934
0.0442934
0.0442934
0.0442934
0.0442934
0.0442934
0.0442934
0.044293
0.0442785
0.0493113
0.0486378
0.0480204
0.0474812
0.0470338
0.0466807
0.0464149
0.0462235
0.0460913
0.0460039
0.0459494
0.0459363
0.0463397
0.0477241
0.0494024
0.0496884
0.0494615
0.0494754
0.0496801
0.0494508
0.0494081
0.0486727
0.0480946
0.047582
0.0471452
0.046789
0.046511
0.0463033
0.0461542
0.0460511
0.0459823
0.0459376
0.0459093
0.0458919
0.0458813
0.0458749
0.0458711
0.0458689
0.0458676
0.0458668
0.0458663
0.045866
0.0458658
0.0458657
0.0458656
0.0458656
0.0458656
0.0458656
0.0458655
0.0458655
0.0458655
0.0458655
0.0458655
0.0458655
0.0458655
0.0458655
0.0458655
0.0458655
0.0458652
0.0458541
0.0494815
0.0489736
0.0485072
0.0480995
0.0477611
0.0474941
0.0472933
0.0471488
0.0470492
0.0469834
0.0469424
0.0469316
0.0472452
0.0482269
0.0496012
0.0497606
0.0496988
0.0496615
0.0497579
0.0496969
0.0495634
0.0490197
0.0485958
0.0482124
0.0478805
0.0476065
0.0473907
0.047228
0.0471105
0.0470287
0.0469737
0.0469379
0.0469151
0.0469009
0.0468923
0.0468871
0.046884
0.0468822
0.0468811
0.0468805
0.0468801
0.0468799
0.0468797
0.0468796
0.0468796
0.0468795
0.0468795
0.0468795
0.0468795
0.0468795
0.0468795
0.0468795
0.0468795
0.0468795
0.0468795
0.0468795
0.0468795
0.0468795
0.0468793
0.0468706
0.0495958
0.0491993
0.0488349
0.0485163
0.0482519
0.0480434
0.0478868
0.0477743
0.0476967
0.0476457
0.0476141
0.0476015
0.0477594
0.0481963
0.049695
0.0497706
0.0497655
0.0497636
0.0497682
0.0497654
0.0496642
0.0492372
0.0489086
0.0486107
0.0483519
0.0481376
0.0479683
0.0478405
0.0477478
0.0476833
0.0476398
0.0476114
0.0475933
0.047582
0.0475752
0.047571
0.0475686
0.0475671
0.0475663
0.0475658
0.0475655
0.0475653
0.0475652
0.0475651
0.047565
0.047565
0.047565
0.047565
0.047565
0.047565
0.047565
0.047565
0.047565
0.047565
0.047565
0.047565
0.047565
0.047565
0.0475648
0.0475579
0.0496761
0.0493581
0.0490658
0.0488101
0.048598
0.0484309
0.0483054
0.0482154
0.0481535
0.0481127
0.0480877
0.0480782
0.0482037
0.0484861
0.0497307
0.0498119
0.0498135
0.0498134
0.0498131
0.0498134
0.0497332
0.0493904
0.0491268
0.0488877
0.04868
0.0485079
0.0483719
0.0482692
0.0481948
0.048143
0.0481081
0.0480853
0.0480708
0.0480618
0.0480563
0.048053
0.0480511
0.0480499
0.0480492
0.0480488
0.0480486
0.0480484
0.0480484
0.0480483
0.0480483
0.0480482
0.0480482
0.0480482
0.0480482
0.0480482
0.0480482
0.0480482
0.0480482
0.0480482
0.0480482
0.0480482
0.0480482
0.0480482
0.0480481
0.0480425
0.0497346
0.0494741
0.0492344
0.0490248
0.048851
0.0487141
0.0486114
0.0485378
0.0484872
0.048454
0.0484335
0.0484305
0.0485796
0.0490179
0.049801
0.0498495
0.0498476
0.0498465
0.0498467
0.0498471
0.049783
0.049503
0.0492857
0.0490888
0.048918
0.0487767
0.0486652
0.0485812
0.0485204
0.0484781
0.0484496
0.0484311
0.0484193
0.048412
0.0484076
0.0484049
0.0484034
0.0484025
0.0484019
0.0484016
0.0484014
0.0484013
0.0484012
0.0484012
0.0484012
0.0484011
0.0484011
0.0484011
0.0484011
0.0484011
0.0484011
0.0484011
0.0484011
0.0484011
0.0484011
0.0484011
0.0484011
0.0484011
0.048401
0.0483964
0.0497787
0.0495613
0.0493613
0.0491864
0.0490414
0.0489272
0.0488416
0.0487803
0.0487382
0.0487106
0.0486936
0.0486908
0.0488454
0.0492682
0.049834
0.0499154
0.0498763
0.0498858
0.0499147
0.0498739
0.0498329
0.0495871
0.049402
0.049236
0.049093
0.0489755
0.0488832
0.0488139
0.0487639
0.0487292
0.0487059
0.0486908
0.0486812
0.0486753
0.0486717
0.0486696
0.0486683
0.0486676
0.0486671
0.0486669
0.0486667
0.0486666
0.0486666
0.0486666
0.0486665
0.0486665
0.0486665
0.0486665
0.0486665
0.0486665
0.0486665
0.0486665
0.0486665
0.0486665
0.0486665
0.0486665
0.0486665
0.0486665
0.0486664
0.0486626
0.0498126
0.0496285
0.0494591
0.0493109
0.0491881
0.0490915
0.0490191
0.0489672
0.0489316
0.0489081
0.0488934
0.0488876
0.0489553
0.0491695
0.0498031
0.0498549
0.0498028
0.0498394
0.0498559
0.0498063
0.0498083
0.0495995
0.049454
0.0493225
0.0492092
0.0491159
0.0490426
0.0489876
0.0489479
0.0489205
0.0489021
0.0488901
0.0488825
0.0488779
0.0488751
0.0488734
0.0488724
0.0488718
0.0488715
0.0488713
0.0488712
0.0488711
0.0488711
0.0488711
0.048871
0.048871
0.048871
0.048871
0.048871
0.048871
0.048871
0.048871
0.048871
0.048871
0.048871
0.048871
0.048871
0.048871
0.0488709
0.0488677
0.0498393
0.0496814
0.049536
0.049409
0.0493037
0.0492208
0.0491587
0.0491143
0.0490837
0.0490634
0.0490505
0.0490432
0.0490537
0.0491833
0.0494806
0.0496443
0.0495571
0.0496022
0.049667
0.0496711
0.0496686
0.049527
0.0494278
0.0493391
0.0492628
0.0491998
0.04915
0.0491125
0.0490853
0.0490663
0.0490536
0.0490453
0.04904
0.0490367
0.0490347
0.0490335
0.0490328
0.0490324
0.0490322
0.049032
0.049032
0.0490319
0.0490319
0.0490319
0.0490319
0.0490318
0.0490318
0.0490318
0.0490318
0.0490318
0.0490318
0.0490318
0.0490318
0.0490318
0.0490318
0.0490318
0.0490318
0.0490318
0.0490318
0.0490289
0.0498607
0.0497237
0.0495977
0.0494874
0.0493961
0.0493242
0.0492703
0.0492317
0.0492052
0.0491875
0.0491762
0.0491692
0.0491675
0.0491947
0.0492426
0.0492839
0.0492999
0.0493199
0.0493342
0.049344
0.0493494
0.0493342
0.0493118
0.049286
0.04926
0.0492361
0.0492157
0.0491994
0.0491869
0.0491779
0.0491716
0.0491674
0.0491646
0.0491628
0.0491617
0.0491611
0.0491607
0.0491604
0.0491603
0.0491602
0.0491602
0.0491601
0.0491601
0.0491601
0.0491601
0.0491601
0.0491601
0.0491601
0.0491601
0.0491601
0.0491601
0.0491601
0.0491601
0.0491601
0.0491601
0.0491601
0.0491601
0.0491601
0.04916
0.0491576
0.049878
0.049758
0.0496475
0.0495507
0.0494704
0.049407
0.0493595
0.0493254
0.0493018
0.0492861
0.0492759
0.0492696
0.0492661
0.0492672
0.0492735
0.049282
0.049289
0.0492951
0.0493001
0.0493038
0.0493063
0.0493061
0.0493033
0.0492985
0.0492926
0.0492864
0.0492806
0.0492756
0.0492715
0.0492684
0.0492661
0.0492645
0.0492634
0.0492626
0.0492622
0.0492619
0.0492617
0.0492616
0.0492615
0.0492614
0.0492614
0.0492614
0.0492614
0.0492614
0.0492614
0.0492614
0.0492614
0.0492614
0.0492614
0.0492614
0.0492614
0.0492614
0.0492614
0.0492614
0.0492614
0.0492614
0.0492614
0.0492614
0.0492613
0.0492591
0.0498922
0.0497857
0.0496871
0.0496002
0.0495274
0.0494695
0.0494256
0.0493937
0.0493714
0.0493564
0.0493466
0.0493404
0.0493366
0.0493347
0.0493345
0.0493355
0.049337
0.0493386
0.04934
0.0493411
0.0493418
0.0493421
0.0493418
0.0493411
0.0493399
0.0493386
0.0493373
0.0493361
0.049335
0.0493341
0.0493334
0.0493329
0.0493325
0.0493323
0.0493321
0.049332
0.0493319
0.0493319
0.0493318
0.0493318
0.0493318
0.0493318
0.0493318
0.0493318
0.0493318
0.0493318
0.0493318
0.0493318
0.0493318
0.0493318
0.0493318
0.0493318
0.0493318
0.0493318
0.0493318
0.0493318
0.0493318
0.0493318
0.0493317
0.0493297
0.0499028
0.0498053
0.0497133
0.0496303
0.0495591
0.0495009
0.0494556
0.0494218
0.0493975
0.0493807
0.0493695
0.0493622
0.0493576
0.0493548
0.0493534
0.0493535
0.0493541
0.0493547
0.0493554
0.0493552
0.049355
0.0493548
0.0493545
0.0493542
0.0493538
0.0493534
0.049353
0.0493526
0.0493523
0.049352
0.0493518
0.0493516
0.0493514
0.0493513
0.0493512
0.0493512
0.0493511
0.0493511
0.0493511
0.0493511
0.0493511
0.049351
0.049351
0.049351
0.049351
0.049351
0.049351
0.049351
0.049351
0.049351
0.049351
0.049351
0.049351
0.049351
0.049351
0.049351
0.049351
0.049351
0.049351
0.0493491
0.0248063
0.0155487
0.0112692
0.00895383
0.00756316
0.0067015
0.00616685
0.00583965
0.00564371
0.00552869
0.00546198
0.00542287
0.00539859
0.00538166
0.00536802
0.00535596
0.00534538
0.00533677
0.00533369
0.00533826
0.00534882
0.0053638
0.00537858
0.00539026
0.00539858
0.00540279
0.00540486
0.00540512
0.00540438
0.00540327
0.00540209
0.00540074
0.00539988
0.00539911
0.00539833
0.00539787
0.00539748
0.00539706
0.00539682
0.00539664
0.0053967
0.00539659
0.00539652
0.00539648
0.00539645
0.00539644
0.00539643
0.00539642
0.00539642
0.00539642
0.00539642
0.00539642
0.00539641
0.00539641
0.00539641
0.00539641
0.00539641
0.00539641
0.00539638
0.00539311
0.0407517
0.0343409
0.0298979
0.0267594
0.0245363
0.0229794
0.0219114
0.0211975
0.0207324
0.0204364
0.0202497
0.0201298
0.0200477
0.0199883
0.0199428
0.0199134
0.0198986
0.0198939
0.0198979
0.0199137
0.0199383
0.01997
0.0200008
0.020026
0.0200437
0.0200546
0.0200604
0.0200629
0.0200637
0.0200632
0.020062
0.020061
0.0200595
0.0200584
0.0200575
0.0200566
0.020056
0.0200554
0.0200551
0.0200547
0.0200544
0.0200542
0.0200541
0.020054
0.0200539
0.0200539
0.0200538
0.0200538
0.0200538
0.0200538
0.0200538
0.0200538
0.0200538
0.0200538
0.0200538
0.0200538
0.0200538
0.0200538
0.0200535
0.0200361
0.0457581
0.042091
0.0391109
0.0367636
0.0349732
0.0336538
0.0327147
0.0320686
0.0316381
0.0313589
0.0311801
0.0310634
0.0309832
0.0309464
0.0309425
0.0309668
0.0310079
0.0310497
0.0310859
0.0311266
0.0311644
0.0311834
0.0311823
0.0311645
0.0311368
0.0311063
0.0310776
0.0310535
0.0310345
0.0310205
0.0310103
0.0310032
0.0309981
0.0309945
0.030992
0.0309904
0.0309891
0.0309882
0.0309876
0.0309871
0.0309868
0.0309866
0.0309864
0.0309862
0.0309862
0.0309861
0.0309861
0.030986
0.030986
0.030986
0.030986
0.030986
0.030986
0.030986
0.030986
0.030986
0.030986
0.030986
0.0309855
0.0309606
0.0476981
0.0455458
0.0436698
0.0421097
0.040871
0.0399307
0.0392465
0.0387682
0.0384457
0.0382359
0.0381048
0.038024
0.03799
0.0382512
0.0385822
0.0388832
0.0391254
0.0392886
0.0393863
0.0394537
0.0394948
0.0392872
0.0390478
0.0388075
0.03859
0.0384083
0.0382659
0.0381603
0.0380854
0.0380344
0.0380006
0.037979
0.0379652
0.0379565
0.0379511
0.0379477
0.0379456
0.0379442
0.0379433
0.0379427
0.0379423
0.037942
0.0379419
0.0379417
0.0379416
0.0379416
0.0379415
0.0379415
0.0379415
0.0379415
0.0379415
0.0379415
0.0379415
0.0379415
0.0379415
0.0379415
0.0379415
0.0379415
0.0379409
0.0379175
0.0485819
0.0472211
0.0460034
0.0449672
0.0441295
0.0434846
0.0430106
0.0426768
0.0424513
0.0423073
0.0422232
0.0421954
0.042426
0.0429355
0.0442039
0.044967
0.0452902
0.0454743
0.0455097
0.0455096
0.0455268
0.0455019
0.0446797
0.0439993
0.0434549
0.0430354
0.0427252
0.0425049
0.0423541
0.0422544
0.0421904
0.0421504
0.0421259
0.0421112
0.0421024
0.0420972
0.0420941
0.0420922
0.042091
0.0420904
0.0420899
0.0420896
0.0420894
0.0420893
0.0420892
0.0420892
0.0420891
0.0420891
0.0420891
0.0420891
0.0420891
0.0420891
0.0420891
0.0420891
0.0420891
0.0420891
0.0420891
0.0420891
0.0420886
0.0420698
0.0490439
0.0481185
0.0472827
0.0465658
0.0459826
0.0455317
0.0451992
0.0449647
0.0448067
0.0447061
0.04465
0.0446582
0.0451202
0.0465774
0.0483856
0.048718
0.0484471
0.0485789
0.048798
0.0485158
0.0487099
0.047972
0.0471828
0.0465152
0.0459708
0.0455446
0.0452247
0.0449944
0.0448348
0.0447282
0.0446591
0.0446156
0.0445889
0.0445727
0.0445631
0.0445575
0.0445541
0.0445522
0.044551
0.0445503
0.0445499
0.0445496
0.0445494
0.0445493
0.0445492
0.0445492
0.0445492
0.0445491
0.0445491
0.0445491
0.0445491
0.0445491
0.0445491
0.0445491
0.0445491
0.0445491
0.0445491
0.0445491
0.0445488
0.0445345
0.0493129
0.0486457
0.048041
0.047521
0.0470974
0.0467696
0.0465281
0.0463578
0.0462428
0.046169
0.0461258
0.0461268
0.0466181
0.0482644
0.0498414
0.049837
0.0497216
0.0497419
0.0498278
0.049721
0.0497081
0.0487754
0.0481849
0.0476677
0.0472357
0.0468911
0.0466285
0.0464369
0.0463026
0.0462119
0.0461526
0.0461149
0.0460915
0.0460773
0.0460687
0.0460637
0.0460607
0.046059
0.046058
0.0460574
0.046057
0.0460567
0.0460566
0.0460565
0.0460565
0.0460564
0.0460564
0.0460564
0.0460564
0.0460564
0.0460564
0.0460564
0.0460564
0.0460564
0.0460564
0.0460564
0.0460564
0.0460564
0.0460561
0.0460452
0.0494828
0.0489796
0.048523
0.04813
0.0478099
0.0475624
0.0473801
0.0472517
0.0471649
0.0471087
0.0470745
0.0470713
0.0474565
0.0487711
0.0498662
0.0498346
0.0497035
0.0497511
0.0498339
0.0497
0.049728
0.0490862
0.0486565
0.0482713
0.0479443
0.0476802
0.0474769
0.0473274
0.0472219
0.0471501
0.0471029
0.0470728
0.0470539
0.0470424
0.0470355
0.0470314
0.047029
0.0470276
0.0470267
0.0470263
0.0470259
0.0470258
0.0470256
0.0470256
0.0470255
0.0470255
0.0470255
0.0470255
0.0470255
0.0470255
0.0470254
0.0470254
0.0470254
0.0470254
0.0470254
0.0470254
0.0470254
0.0470254
0.0470252
0.0470168
0.0495968
0.049204
0.0488474
0.0485404
0.0482904
0.0480973
0.0479552
0.0478552
0.0477876
0.0477437
0.0477169
0.0477129
0.0479533
0.0488447
0.0498039
0.0498152
0.049769
0.0497762
0.049811
0.0497662
0.0497847
0.0492884
0.0489552
0.0486561
0.0484011
0.0481947
0.0480354
0.047918
0.047835
0.0477784
0.047741
0.0477172
0.0477022
0.0476931
0.0476876
0.0476844
0.0476824
0.0476813
0.0476806
0.0476802
0.04768
0.0476799
0.0476798
0.0476797
0.0476797
0.0476797
0.0476796
0.0476796
0.0476796
0.0476796
0.0476796
0.0476796
0.0476796
0.0476796
0.0476796
0.0476796
0.0476796
0.0476796
0.0476794
0.0476728
0.0496769
0.049362
0.0490759
0.0488296
0.0486292
0.0484744
0.0483606
0.0482806
0.0482267
0.0481916
0.0481703
0.0481677
0.048354
0.0490117
0.0497857
0.0498203
0.0498145
0.0498148
0.0498159
0.0498124
0.0498283
0.0494309
0.0491637
0.0489237
0.0487192
0.0485535
0.0484257
0.0483315
0.0482649
0.0482195
0.0481896
0.0481704
0.0481585
0.0481512
0.0481468
0.0481442
0.0481427
0.0481418
0.0481412
0.0481409
0.0481408
0.0481406
0.0481406
0.0481405
0.0481405
0.0481405
0.0481405
0.0481405
0.0481405
0.0481405
0.0481405
0.0481405
0.0481405
0.0481405
0.0481405
0.0481405
0.0481405
0.0481405
0.0481403
0.0481349
0.0497353
0.0494772
0.0492427
0.0490409
0.0488766
0.0487499
0.0486568
0.0485915
0.0485474
0.048519
0.0485017
0.0485012
0.0487066
0.0493264
0.0499015
0.0498964
0.0498516
0.0498616
0.0498938
0.0498496
0.0498608
0.0495361
0.0493154
0.0491178
0.0489498
0.048814
0.0487093
0.0486323
0.0485779
0.048541
0.0485166
0.0485011
0.0484914
0.0484855
0.0484819
0.0484798
0.0484786
0.0484779
0.0484775
0.0484773
0.0484771
0.048477
0.048477
0.0484769
0.0484769
0.0484769
0.0484769
0.0484769
0.0484769
0.0484769
0.0484769
0.0484769
0.0484769
0.0484769
0.0484769
0.0484769
0.0484769
0.0484769
0.0484768
0.0484723
0.0497792
0.0495639
0.0493682
0.0491998
0.0490628
0.0489572
0.0488796
0.0488252
0.0487886
0.048765
0.0487508
0.0487509
0.0489365
0.0495035
0.0499814
0.049935
0.0498799
0.0499136
0.0499329
0.0498777
0.0499097
0.0496198
0.0494291
0.0492614
0.0491204
0.0490073
0.0489206
0.0488571
0.0488123
0.048782
0.048762
0.0487494
0.0487415
0.0487367
0.0487338
0.0487322
0.0487312
0.0487306
0.0487303
0.0487301
0.04873
0.0487299
0.0487299
0.0487298
0.0487298
0.0487298
0.0487298
0.0487298
0.0487298
0.0487298
0.0487298
0.0487298
0.0487298
0.0487298
0.0487298
0.0487298
0.0487298
0.0487298
0.0487297
0.048726
0.0498131
0.0496307
0.049465
0.0493224
0.0492064
0.0491169
0.0490513
0.0490053
0.0489743
0.0489541
0.0489413
0.0489378
0.0490611
0.0494537
0.0499647
0.0499331
0.0498944
0.0498993
0.0499323
0.0498953
0.0499381
0.0496426
0.0494863
0.0493504
0.0492368
0.049146
0.0490766
0.0490258
0.0489901
0.048966
0.0489502
0.0489401
0.0489338
0.0489301
0.0489278
0.0489265
0.0489257
0.0489253
0.048925
0.0489249
0.0489248
0.0489247
0.0489247
0.0489247
0.0489247
0.0489247
0.0489247
0.0489247
0.0489247
0.0489247
0.0489247
0.0489247
0.0489247
0.0489247
0.0489247
0.0489247
0.0489247
0.0489247
0.0489246
0.0489214
0.0498397
0.0496833
0.0495411
0.0494188
0.0493193
0.0492427
0.0491864
0.049147
0.0491204
0.049103
0.0490917
0.0490848
0.0491138
0.0492725
0.0495847
0.0496907
0.0496867
0.0496933
0.0497131
0.0497055
0.0497208
0.0495568
0.0494549
0.0493655
0.0492902
0.0492294
0.0491825
0.0491479
0.0491234
0.0491068
0.0490958
0.0490888
0.0490844
0.0490817
0.0490801
0.0490792
0.0490786
0.0490783
0.0490781
0.049078
0.049078
0.0490779
0.0490779
0.0490779
0.0490779
0.0490779
0.0490779
0.0490779
0.0490779
0.0490779
0.0490779
0.0490779
0.0490779
0.0490779
0.0490779
0.0490779
0.0490779
0.0490779
0.0490778
0.0490751
0.049861
0.0497254
0.0496021
0.049496
0.0494097
0.0493432
0.0492944
0.0492602
0.0492371
0.049222
0.0492123
0.0492061
0.0492063
0.0492338
0.0492795
0.0493186
0.0493428
0.0493589
0.0493694
0.0493761
0.0493795
0.0493636
0.0493409
0.0493154
0.0492902
0.0492676
0.0492487
0.0492338
0.0492227
0.0492149
0.0492095
0.049206
0.0492037
0.0492023
0.0492014
0.0492009
0.0492006
0.0492004
0.0492003
0.0492002
0.0492002
0.0492002
0.0492001
0.0492001
0.0492001
0.0492001
0.0492001
0.0492001
0.0492001
0.0492001
0.0492001
0.0492001
0.0492001
0.0492001
0.0492001
0.0492001
0.0492001
0.0492001
0.0492
0.0491977
0.0498783
0.0497595
0.0496514
0.0495582
0.0494823
0.0494238
0.0493807
0.0493505
0.04933
0.0493166
0.0493081
0.0493027
0.0493
0.0493016
0.0493085
0.0493169
0.0493244
0.0493303
0.0493347
0.0493372
0.0493386
0.0493378
0.0493347
0.04933
0.0493244
0.0493186
0.0493133
0.0493088
0.0493053
0.0493026
0.0493006
0.0492993
0.0492984
0.0492978
0.0492975
0.0492972
0.0492971
0.049297
0.0492969
0.0492969
0.0492969
0.0492969
0.0492968
0.0492968
0.0492968
0.0492968
0.0492968
0.0492968
0.0492968
0.0492968
0.0492968
0.0492968
0.0492968
0.0492968
0.0492968
0.0492968
0.0492968
0.0492968
0.0492968
0.0492947
0.0498924
0.049787
0.0496905
0.0496068
0.0495381
0.0494845
0.0494447
0.0494164
0.0493971
0.0493843
0.0493761
0.0493709
0.049368
0.0493666
0.0493673
0.0493688
0.0493704
0.049372
0.0493734
0.0493738
0.0493739
0.0493737
0.0493733
0.0493725
0.0493714
0.0493703
0.0493691
0.049368
0.0493671
0.0493663
0.0493658
0.0493654
0.0493651
0.0493649
0.0493647
0.0493646
0.0493646
0.0493645
0.0493645
0.0493645
0.0493645
0.0493645
0.0493645
0.0493645
0.0493645
0.0493645
0.0493645
0.0493644
0.0493644
0.0493644
0.0493644
0.0493644
0.0493644
0.0493644
0.0493644
0.0493644
0.0493644
0.0493644
0.0493644
0.0493625
0.049903
0.0498063
0.0497161
0.0496359
0.0495684
0.0495143
0.049473
0.0494429
0.0494217
0.0494074
0.0493979
0.0493919
0.0493883
0.0493863
0.0493857
0.0493858
0.0493862
0.0493867
0.0493873
0.0493871
0.0493867
0.0493864
0.0493861
0.0493858
0.0493855
0.0493851
0.0493848
0.0493845
0.0493842
0.049384
0.0493838
0.0493837
0.0493835
0.0493835
0.0493834
0.0493833
0.0493833
0.0493833
0.0493833
0.0493833
0.0493832
0.0493832
0.0493832
0.0493832
0.0493832
0.0493832
0.0493832
0.0493832
0.0493832
0.0493832
0.0493832
0.0493832
0.0493832
0.0493832
0.0493832
0.0493832
0.0493832
0.0493832
0.0493832
0.0493814
0.0248064
0.0155493
0.0112707
0.00895732
0.00756892
0.00671009
0.00617842
0.00585411
0.00566071
0.00554781
0.00548283
0.00544517
0.00542218
0.00540644
0.00539382
0.00538261
0.0053727
0.00536456
0.00536092
0.00536379
0.00537253
0.00538606
0.00539996
0.00541135
0.00541953
0.0054239
0.00542598
0.00542634
0.0054257
0.0054248
0.00542363
0.00542258
0.0054217
0.00542108
0.00542031
0.00541991
0.00541958
0.00541919
0.00541898
0.00541881
0.00541888
0.00541878
0.00541872
0.00541868
0.00541865
0.00541864
0.00541863
0.00541862
0.00541862
0.00541862
0.00541862
0.00541862
0.00541862
0.00541862
0.00541862
0.00541862
0.00541862
0.00541862
0.00541858
0.00541529
0.0407527
0.0343447
0.029908
0.0267797
0.0245698
0.0230282
0.0219759
0.0212766
0.0208245
0.0205393
0.0203617
0.0202492
0.0201731
0.0201177
0.0200754
0.0200478
0.0200338
0.0200287
0.0200307
0.0200413
0.0200608
0.0200887
0.0201178
0.0201421
0.0201598
0.020171
0.0201773
0.0201806
0.0201819
0.020182
0.0201813
0.0201806
0.0201795
0.0201787
0.020178
0.0201772
0.0201768
0.0201762
0.020176
0.0201756
0.0201754
0.0201752
0.0201751
0.020175
0.020175
0.0201749
0.0201749
0.0201749
0.0201749
0.0201749
0.0201749
0.0201749
0.0201749
0.0201749
0.0201749
0.0201749
0.0201749
0.0201749
0.0201746
0.020157
0.0457593
0.0420967
0.0391258
0.0367928
0.035021
0.0337221
0.0328034
0.0321764
0.0317627
0.0314977
0.0313315
0.0312255
0.0311532
0.0311196
0.0311185
0.0311429
0.031182
0.0312204
0.0312517
0.0312812
0.0313099
0.0313248
0.0313236
0.031307
0.0312816
0.0312536
0.0312276
0.0312061
0.0311892
0.031177
0.0311682
0.0311622
0.0311579
0.0311549
0.0311528
0.0311515
0.0311504
0.0311497
0.0311491
0.0311487
0.0311484
0.0311482
0.031148
0.0311479
0.0311479
0.0311478
0.0311478
0.0311477
0.0311477
0.0311477
0.0311477
0.0311477
0.0311477
0.0311477
0.0311477
0.0311477
0.0311477
0.0311477
0.0311472
0.0311223
0.0476992
0.045551
0.0436836
0.042137
0.0409154
0.0399942
0.039329
0.0388681
0.0385612
0.038367
0.0382521
0.0381879
0.0381639
0.0384137
0.0387462
0.0390364
0.0392635
0.0394139
0.0394997
0.039552
0.0395846
0.0393793
0.0391464
0.0389127
0.0387019
0.0385267
0.0383906
0.0382906
0.0382206
0.0381734
0.0381426
0.0381231
0.038111
0.0381033
0.0380986
0.0380958
0.038094
0.0380928
0.038092
0.0380915
0.0380911
0.0380908
0.0380907
0.0380906
0.0380905
0.0380905
0.0380904
0.0380904
0.0380904
0.0380904
0.0380904
0.0380904
0.0380904
0.0380904
0.0380904
0.0380904
0.0380904
0.0380904
0.0380898
0.0380665
0.0485827
0.0472252
0.0460142
0.0449885
0.0441644
0.0435348
0.0430758
0.0427558
0.0425433
0.0424107
0.0423397
0.0423344
0.0425793
0.0431071
0.0443713
0.0450762
0.0453609
0.0455047
0.0455416
0.0455481
0.0455857
0.0455651
0.0447439
0.0440656
0.0435253
0.043112
0.0428091
0.0425961
0.042452
0.0423579
0.0422983
0.0422616
0.0422394
0.0422262
0.0422184
0.0422139
0.0422112
0.0422096
0.0422086
0.042208
0.0422076
0.0422073
0.0422072
0.0422071
0.042207
0.0422069
0.0422069
0.0422069
0.0422069
0.0422069
0.0422069
0.0422069
0.0422069
0.0422069
0.0422069
0.0422069
0.0422069
0.0422069
0.0422064
0.0421878
0.0490445
0.0481215
0.0472907
0.0465818
0.0460089
0.0455694
0.0452482
0.0450241
0.0448751
0.0447829
0.0447368
0.0447675
0.0452724
0.0467612
0.0484594
0.0487311
0.0484637
0.0485896
0.0487748
0.0485285
0.0488811
0.0480486
0.0472411
0.0465648
0.0460184
0.0455948
0.0452802
0.0450564
0.0449032
0.0448021
0.0447375
0.0446973
0.044673
0.0446585
0.04465
0.044645
0.0446421
0.0446404
0.0446394
0.0446388
0.0446384
0.0446382
0.044638
0.0446379
0.0446378
0.0446378
0.0446378
0.0446378
0.0446378
0.0446378
0.0446377
0.0446377
0.0446377
0.0446377
0.0446377
0.0446377
0.0446377
0.0446377
0.0446374
0.0446233
0.0493134
0.0486479
0.048047
0.047533
0.0471172
0.0467981
0.046565
0.0464023
0.0462937
0.0462251
0.0461865
0.046194
0.0467087
0.0484976
0.049794
0.0496923
0.0495378
0.0495627
0.0496874
0.0495385
0.0498784
0.0487873
0.0482003
0.0476869
0.0472595
0.0469206
0.0466645
0.0464794
0.0463512
0.0462655
0.0462102
0.0461755
0.0461542
0.0461414
0.0461339
0.0461294
0.0461269
0.0461254
0.0461244
0.0461239
0.0461236
0.0461234
0.0461233
0.0461232
0.0461232
0.0461231
0.0461231
0.0461231
0.0461231
0.0461231
0.0461231
0.0461231
0.0461231
0.0461231
0.0461231
0.0461231
0.0461231
0.0461231
0.0461228
0.0461121
0.0494832
0.0489813
0.0485276
0.0481393
0.0478252
0.0475843
0.0474085
0.0472858
0.0472036
0.0471506
0.0471176
0.0471128
0.0475122
0.0488525
0.0495165
0.049363
0.0492921
0.049292
0.0492788
0.0492702
0.0496412
0.0490872
0.0486626
0.048282
0.0479595
0.0477005
0.0475029
0.0473589
0.0472583
0.0471907
0.0471468
0.047119
0.0471019
0.0470916
0.0470855
0.0470819
0.0470798
0.0470785
0.0470778
0.0470774
0.0470771
0.047077
0.0470769
0.0470768
0.0470768
0.0470767
0.0470767
0.0470767
0.0470767
0.0470767
0.0470767
0.0470767
0.0470767
0.0470767
0.0470767
0.0470767
0.0470767
0.0470767
0.0470765
0.0470682
0.0495971
0.0492054
0.0488511
0.0485478
0.0483025
0.0481146
0.0479776
0.047882
0.0478179
0.0477761
0.0477496
0.0477441
0.0480579
0.0490508
0.0496052
0.0494761
0.0494132
0.0493888
0.0493626
0.0493688
0.0497158
0.0492887
0.0489597
0.048664
0.0484127
0.0482104
0.0480556
0.0479426
0.0478635
0.0478102
0.0477755
0.0477536
0.04774
0.0477318
0.047727
0.0477241
0.0477224
0.0477214
0.0477208
0.0477205
0.0477203
0.0477202
0.0477201
0.04772
0.04772
0.04772
0.04772
0.04772
0.04772
0.04772
0.04772
0.04772
0.04772
0.04772
0.04772
0.04772
0.04772
0.04772
0.0477198
0.0477133
0.0496771
0.049363
0.0490788
0.0488355
0.0486389
0.0484884
0.0483787
0.0483023
0.0482511
0.0482177
0.0481967
0.0481936
0.0484492
0.0492339
0.0496851
0.049587
0.0495325
0.0495075
0.0494863
0.0494873
0.049773
0.0494308
0.0491669
0.0489299
0.0487283
0.0485661
0.0484419
0.0483513
0.0482879
0.0482452
0.0482174
0.0481998
0.048189
0.0481824
0.0481785
0.0481762
0.0481749
0.0481741
0.0481736
0.0481734
0.0481732
0.0481731
0.0481731
0.048173
0.048173
0.048173
0.048173
0.048173
0.048173
0.048173
0.048173
0.048173
0.048173
0.048173
0.048173
0.048173
0.048173
0.048173
0.0481728
0.0481675
0.0497355
0.0494781
0.0492451
0.0490458
0.0488847
0.0487614
0.0486717
0.0486093
0.0485676
0.0485406
0.0485239
0.0485223
0.0487428
0.0493877
0.0497486
0.0496627
0.049628
0.0496187
0.0495971
0.0496011
0.0498173
0.049536
0.0493179
0.0491227
0.0489573
0.0488243
0.0487227
0.0486486
0.0485969
0.0485621
0.0485395
0.0485252
0.0485164
0.0485111
0.048508
0.0485062
0.0485051
0.0485045
0.0485041
0.0485039
0.0485038
0.0485037
0.0485037
0.0485036
0.0485036
0.0485036
0.0485036
0.0485036
0.0485036
0.0485036
0.0485036
0.0485036
0.0485036
0.0485036
0.0485036
0.0485036
0.0485036
0.0485036
0.0485035
0.0484991
0.0497794
0.0495647
0.0493703
0.0492039
0.0490695
0.0489668
0.0488921
0.0488402
0.0488055
0.0487832
0.0487698
0.0487702
0.0489578
0.0495044
0.0498677
0.0497902
0.0497455
0.0497736
0.0497691
0.0497393
0.0498856
0.0496213
0.0494324
0.0492665
0.0491275
0.0490166
0.0489323
0.048871
0.0488284
0.0487998
0.0487813
0.0487696
0.0487625
0.0487582
0.0487557
0.0487542
0.0487533
0.0487528
0.0487525
0.0487524
0.0487523
0.0487522
0.0487522
0.0487522
0.0487521
0.0487521
0.0487521
0.0487521
0.0487521
0.0487521
0.0487521
0.0487521
0.0487521
0.0487521
0.0487521
0.0487521
0.0487521
0.0487521
0.048752
0.0487484
0.0498132
0.0496314
0.0494667
0.0493258
0.0492121
0.0491251
0.0490619
0.049018
0.0489887
0.0489695
0.0489571
0.048953
0.0491059
0.0495696
0.049981
0.0499222
0.04988
0.0498873
0.0499196
0.0498804
0.0499711
0.0496509
0.0494943
0.0493585
0.0492455
0.0491558
0.0490878
0.0490386
0.0490044
0.0489815
0.0489667
0.0489574
0.0489518
0.0489483
0.0489464
0.0489452
0.0489445
0.0489441
0.0489439
0.0489438
0.0489437
0.0489437
0.0489436
0.0489436
0.0489436
0.0489436
0.0489436
0.0489436
0.0489436
0.0489436
0.0489436
0.0489436
0.0489436
0.0489436
0.0489436
0.0489436
0.0489436
0.0489436
0.0489435
0.0489404
0.0498398
0.0496838
0.0495426
0.0494218
0.0493242
0.0492497
0.0491956
0.0491579
0.0491328
0.0491163
0.0491053
0.0490981