/*--------------------------------*- C++ -*----------------------------------*\
  =========                 |
  \\      /  F ield         | OpenFOAM: The Open Source CFD Toolbox
   \\    /   O peration     | Website:  https://openfoam.org
    \\  /    A nd           | Version:  13
     \\/     M anipulation  |
\*---------------------------------------------------------------------------*/
FoamFile
{
    format      ascii;
    class       volScalarField;
    location    "10";
    object      p;
}
// * * * * * * * * * * * * * * * * * * * * * * * * * * * * * * * * * * * * * //

dimensions      [0 2 -2 0 0 0 0];

internalField   nonuniform List<scalar> 
54636
(
-1.23919e-12
-1.22946e-12
-1.23119e-12
-1.24836e-12
-1.26099e-12
-1.30485e-12
-1.27127e-12
-1.26436e-12
-1.27744e-12
-1.23951e-12
-1.23082e-12
-1.23283e-12
-1.21191e-12
-1.20473e-12
-1.17963e-12
-1.17936e-12
-1.20551e-12
-1.17142e-12
-1.16144e-12
-1.19765e-12
-1.21995e-12
-1.20204e-12
-1.16073e-12
-1.14578e-12
-1.15714e-12
-1.17353e-12
-1.19462e-12
-1.19776e-12
-1.22495e-12
-1.20484e-12
-1.22283e-12
-1.24861e-12
-1.27716e-12
-1.31454e-12
-1.30283e-12
-1.34586e-12
-1.34404e-12
-1.288e-12
-1.26606e-12
-1.22652e-12
-1.17851e-12
-1.16761e-12
-1.15484e-12
-1.09908e-12
-1.04982e-12
-9.86991e-13
-9.25968e-13
-8.48524e-13
-7.69781e-13
-6.95214e-13
-6.25577e-13
-5.38262e-13
-4.65088e-13
-4.02961e-13
-3.57164e-13
-2.83542e-13
-2.18241e-13
-1.54369e-13
-1.13237e-13
-5.21885e-14
-1.24984e-12
-1.22445e-12
-1.22714e-12
-1.24888e-12
-1.2565e-12
-1.29983e-12
-1.28324e-12
-1.26101e-12
-1.27921e-12
-1.22443e-12
-1.23759e-12
-1.23404e-12
-1.22165e-12
-1.19629e-12
-1.18565e-12
-1.1818e-12
-1.20581e-12
-1.18564e-12
-1.16192e-12
-1.19501e-12
-1.21792e-12
-1.20025e-12
-1.15701e-12
-1.15757e-12
-1.16676e-12
-1.16947e-12
-1.18519e-12
-1.18966e-12
-1.21718e-12
-1.21265e-12
-1.23463e-12
-1.25273e-12
-1.26719e-12
-1.31955e-12
-1.30939e-12
-1.33251e-12
-1.34569e-12
-1.27507e-12
-1.27106e-12
-1.23014e-12
-1.19102e-12
-1.16661e-12
-1.15401e-12
-1.10211e-12
-1.04919e-12
-9.90765e-13
-9.23406e-13
-8.51183e-13
-7.64323e-13
-6.87846e-13
-6.19777e-13
-5.4081e-13
-4.6867e-13
-4.1217e-13
-3.51299e-13
-2.88252e-13
-2.18953e-13
-1.56296e-13
-1.0351e-13
-3.79342e-14
-1.24488e-12
-1.22242e-12
-1.24307e-12
-1.25442e-12
-1.25801e-12
-1.29159e-12
-1.28206e-12
-1.24872e-12
-1.25954e-12
-1.23828e-12
-1.23136e-12
-1.24387e-12
-1.23634e-12
-1.19342e-12
-1.19382e-12
-1.17173e-12
-1.21672e-12
-1.18444e-12
-1.15887e-12
-1.19385e-12
-1.22539e-12
-1.18736e-12
-1.16805e-12
-1.16685e-12
-1.17416e-12
-1.17116e-12
-1.18651e-12
-1.18137e-12
-1.20833e-12
-1.21855e-12
-1.22978e-12
-1.25823e-12
-1.27932e-12
-1.31643e-12
-1.31877e-12
-1.32369e-12
-1.33451e-12
-1.26854e-12
-1.27365e-12
-1.23967e-12
-1.1997e-12
-1.16636e-12
-1.15003e-12
-1.10119e-12
-1.0474e-12
-9.85947e-13
-9.19315e-13
-8.43568e-13
-7.63942e-13
-6.78917e-13
-6.088e-13
-5.4545e-13
-4.75461e-13
-4.13399e-13
-3.47545e-13
-2.8908e-13
-2.21993e-13
-1.58278e-13
-1.10095e-13
-3.64157e-14
-1.24412e-12
-1.23263e-12
-1.24983e-12
-1.23408e-12
-1.27307e-12
-1.28362e-12
-1.28669e-12
-1.25627e-12
-1.24437e-12
-1.22759e-12
-1.23703e-12
-1.25405e-12
-1.228e-12
-1.19141e-12
-1.20036e-12
-1.16958e-12
-1.22696e-12
-1.18328e-12
-1.14597e-12
-1.18563e-12
-1.22912e-12
-1.18596e-12
-1.16287e-12
-1.16347e-12
-1.17713e-12
-1.1845e-12
-1.18123e-12
-1.17149e-12
-1.19478e-12
-1.23558e-12
-1.22114e-12
-1.25172e-12
-1.30538e-12
-1.30763e-12
-1.31534e-12
-1.31882e-12
-1.31999e-12
-1.282e-12
-1.2783e-12
-1.25259e-12
-1.18152e-12
-1.17254e-12
-1.15432e-12
-1.10213e-12
-1.04516e-12
-9.72032e-13
-9.16522e-13
-8.41269e-13
-7.57596e-13
-6.78391e-13
-6.06321e-13
-5.39635e-13
-4.81992e-13
-4.12447e-13
-3.47955e-13
-2.96013e-13
-2.25246e-13
-1.57145e-13
-1.07542e-13
-3.72023e-14
-1.21253e-12
-1.24532e-12
-1.26001e-12
-1.2383e-12
-1.28613e-12
-1.28102e-12
-1.27702e-12
-1.23949e-12
-1.24534e-12
-1.23746e-12
-1.23e-12
-1.25758e-12
-1.23236e-12
-1.19142e-12
-1.1987e-12
-1.16277e-12
-1.24156e-12
-1.18509e-12
-1.14789e-12
-1.17061e-12
-1.19371e-12
-1.19587e-12
-1.17703e-12
-1.16061e-12
-1.16678e-12
-1.17906e-12
-1.17517e-12
-1.16718e-12
-1.20152e-12
-1.23433e-12
-1.22972e-12
-1.26035e-12
-1.30332e-12
-1.29719e-12
-1.29828e-12
-1.3145e-12
-1.33332e-12
-1.28532e-12
-1.30585e-12
-1.24811e-12
-1.18322e-12
-1.17532e-12
-1.14411e-12
-1.09837e-12
-1.03287e-12
-9.67213e-13
-9.12154e-13
-8.57512e-13
-7.68355e-13
-6.69427e-13
-5.95819e-13
-5.35314e-13
-4.87023e-13
-4.13811e-13
-3.45128e-13
-3.02257e-13
-2.29443e-13
-1.56073e-13
-1.04347e-13
-3.33004e-14
-1.22131e-12
-1.24894e-12
-1.26651e-12
-1.24837e-12
-1.2858e-12
-1.27798e-12
-1.27888e-12
-1.22697e-12
-1.248e-12
-1.23774e-12
-1.22025e-12
-1.24828e-12
-1.23979e-12
-1.19509e-12
-1.20588e-12
-1.18669e-12
-1.19668e-12
-1.21907e-12
-1.17389e-12
-1.15142e-12
-1.20044e-12
-1.18704e-12
-1.18809e-12
-1.162e-12
-1.18493e-12
-1.17062e-12
-1.16793e-12
-1.15788e-12
-1.2096e-12
-1.24391e-12
-1.22894e-12
-1.24988e-12
-1.30802e-12
-1.29685e-12
-1.29881e-12
-1.31548e-12
-1.32582e-12
-1.30206e-12
-1.30738e-12
-1.25456e-12
-1.18792e-12
-1.16953e-12
-1.15202e-12
-1.09445e-12
-1.02092e-12
-9.61069e-13
-9.02155e-13
-8.64015e-13
-7.67101e-13
-6.70624e-13
-6.01073e-13
-5.31546e-13
-4.73761e-13
-4.04532e-13
-3.64555e-13
-3.20978e-13
-2.23674e-13
-1.42604e-13
-1.12378e-13
-4.37207e-14
-1.19751e-12
-1.2644e-12
-1.27034e-12
-1.26063e-12
-1.28198e-12
-1.26493e-12
-1.27935e-12
-1.23971e-12
-1.24451e-12
-1.23942e-12
-1.23389e-12
-1.24989e-12
-1.25996e-12
-1.18589e-12
-1.24344e-12
-1.20434e-12
-1.1552e-12
-1.2148e-12
-1.17375e-12
-1.16935e-12
-1.16363e-12
-1.20096e-12
-1.19965e-12
-1.16913e-12
-1.16462e-12
-1.1653e-12
-1.16972e-12
-1.17802e-12
-1.21895e-12
-1.24068e-12
-1.21557e-12
-1.25529e-12
-1.29806e-12
-1.28858e-12
-1.29761e-12
-1.32158e-12
-1.32301e-12
-1.30631e-12
-1.29588e-12
-1.25381e-12
-1.19156e-12
-1.16544e-12
-1.14914e-12
-1.09121e-12
-1.02742e-12
-9.78261e-13
-8.94884e-13
-8.48323e-13
-7.58189e-13
-6.59781e-13
-6.03476e-13
-5.41693e-13
-4.74835e-13
-4.02806e-13
-3.66265e-13
-3.17319e-13
-2.26572e-13
-1.54028e-13
-1.09059e-13
-4.48365e-14
-1.21672e-12
-1.25738e-12
-1.27812e-12
-1.26442e-12
-1.26703e-12
-1.26763e-12
-1.25767e-12
-1.24203e-12
-1.24769e-12
-1.23241e-12
-1.24481e-12
-1.24044e-12
-1.26354e-12
-1.1576e-12
-1.23105e-12
-1.25157e-12
-1.22937e-12
-1.18878e-12
-1.18836e-12
-1.14777e-12
-1.14056e-12
-1.19917e-12
-1.20234e-12
-1.16131e-12
-1.1735e-12
-1.17059e-12
-1.17649e-12
-1.17891e-12
-1.2025e-12
-1.24476e-12
-1.22178e-12
-1.2395e-12
-1.27707e-12
-1.30456e-12
-1.29936e-12
-1.32084e-12
-1.32488e-12
-1.31056e-12
-1.29517e-12
-1.25275e-12
-1.19802e-12
-1.16252e-12
-1.1542e-12
-1.08019e-12
-1.00245e-12
-9.72508e-13
-9.01956e-13
-8.45843e-13
-7.5858e-13
-6.49673e-13
-6.05042e-13
-5.41697e-13
-4.73154e-13
-4.11294e-13
-3.73537e-13
-3.04499e-13
-2.2805e-13
-1.57846e-13
-8.59268e-14
-3.60894e-14
-1.22399e-12
-1.25766e-12
-1.27895e-12
-1.26819e-12
-1.26829e-12
-1.26625e-12
-1.26488e-12
-1.23095e-12
-1.23857e-12
-1.24041e-12
-1.25186e-12
-1.22711e-12
-1.24818e-12
-1.19154e-12
-1.21829e-12
-1.24804e-12
-1.17452e-12
-1.18859e-12
-1.20808e-12
-1.13272e-12
-1.13346e-12
-1.19254e-12
-1.20552e-12
-1.16591e-12
-1.17438e-12
-1.18985e-12
-1.16813e-12
-1.17866e-12
-1.20005e-12
-1.23918e-12
-1.23801e-12
-1.24673e-12
-1.26334e-12
-1.29245e-12
-1.29881e-12
-1.33068e-12
-1.33476e-12
-1.31749e-12
-1.30195e-12
-1.23222e-12
-1.19336e-12
-1.16252e-12
-1.15918e-12
-1.06788e-12
-9.96305e-13
-9.64483e-13
-8.93224e-13
-8.46379e-13
-7.67511e-13
-6.38462e-13
-6.14282e-13
-5.59828e-13
-4.83499e-13
-4.17066e-13
-3.69443e-13
-3.01601e-13
-2.31375e-13
-1.44574e-13
-7.75264e-14
-3.01079e-14
-1.21536e-12
-1.2579e-12
-1.28584e-12
-1.27431e-12
-1.27369e-12
-1.26475e-12
-1.25965e-12
-1.23154e-12
-1.24457e-12
-1.23423e-12
-1.2619e-12
-1.23448e-12
-1.21076e-12
-1.21654e-12
-1.18917e-12
-1.23773e-12
-1.15816e-12
-1.17116e-12
-1.16641e-12
-1.15374e-12
-1.14497e-12
-1.22099e-12
-1.19875e-12
-1.17315e-12
-1.17529e-12
-1.17833e-12
-1.15693e-12
-1.20773e-12
-1.1858e-12
-1.23908e-12
-1.22924e-12
-1.24278e-12
-1.27875e-12
-1.29018e-12
-1.29213e-12
-1.33508e-12
-1.33074e-12
-1.32997e-12
-1.26906e-12
-1.25645e-12
-1.21454e-12
-1.14561e-12
-1.13788e-12
-1.07571e-12
-1.01209e-12
-9.66028e-13
-8.71826e-13
-8.24415e-13
-7.59076e-13
-6.46535e-13
-6.26286e-13
-5.66251e-13
-4.83142e-13
-4.31277e-13
-3.707e-13
-2.96455e-13
-2.39738e-13
-1.32839e-13
-6.23825e-14
-3.22134e-14
-1.22409e-12
-1.24246e-12
-1.27303e-12
-1.26622e-12
-1.30144e-12
-1.25647e-12
-1.2614e-12
-1.23399e-12
-1.22538e-12
-1.21969e-12
-1.27171e-12
-1.26276e-12
-1.23026e-12
-1.21634e-12
-1.17882e-12
-1.21928e-12
-1.11267e-12
-1.15781e-12
-1.15891e-12
-1.15833e-12
-1.17753e-12
-1.22333e-12
-1.19396e-12
-1.16826e-12
-1.1724e-12
-1.17673e-12
-1.16223e-12
-1.20589e-12
-1.20715e-12
-1.24307e-12
-1.21739e-12
-1.23974e-12
-1.27135e-12
-1.27988e-12
-1.29908e-12
-1.34065e-12
-1.32509e-12
-1.33276e-12
-1.27153e-12
-1.24304e-12
-1.2154e-12
-1.14374e-12
-1.14095e-12
-1.07091e-12
-1.00313e-12
-9.55022e-13
-8.69177e-13
-8.11947e-13
-7.43359e-13
-6.693e-13
-6.42246e-13
-5.58677e-13
-4.73428e-13
-4.36549e-13
-3.62216e-13
-3.01147e-13
-2.51093e-13
-1.13681e-13
-5.97281e-14
-4.97284e-14
-1.21988e-12
-1.24187e-12
-1.27437e-12
-1.27185e-12
-1.29077e-12
-1.24874e-12
-1.2647e-12
-1.22236e-12
-1.23414e-12
-1.22808e-12
-1.26482e-12
-1.27641e-12
-1.20993e-12
-1.1826e-12
-1.171e-12
-1.16402e-12
-1.17769e-12
-1.19739e-12
-1.17328e-12
-1.18395e-12
-1.17208e-12
-1.23218e-12
-1.18971e-12
-1.14879e-12
-1.1959e-12
-1.17472e-12
-1.16272e-12
-1.2003e-12
-1.21322e-12
-1.22671e-12
-1.22613e-12
-1.22547e-12
-1.26378e-12
-1.29076e-12
-1.29672e-12
-1.32351e-12
-1.34028e-12
-1.31534e-12
-1.26749e-12
-1.2463e-12
-1.22212e-12
-1.15187e-12
-1.11565e-12
-1.06282e-12
-1.00393e-12
-9.46353e-13
-8.62655e-13
-8.10544e-13
-7.34237e-13
-6.74481e-13
-6.36129e-13
-5.52377e-13
-4.77822e-13
-4.45186e-13
-3.68026e-13
-2.88188e-13
-2.26744e-13
-1.36465e-13
-5.92567e-14
-4.10151e-14
-1.22337e-12
-1.23658e-12
-1.28252e-12
-1.26439e-12
-1.27738e-12
-1.24577e-12
-1.26597e-12
-1.22742e-12
-1.2323e-12
-1.24338e-12
-1.25975e-12
-1.27249e-12
-1.2122e-12
-1.17927e-12
-1.18763e-12
-1.15742e-12
-1.12938e-12
-1.17487e-12
-1.16389e-12
-1.13e-12
-1.15097e-12
-1.21131e-12
-1.19584e-12
-1.16003e-12
-1.19773e-12
-1.17579e-12
-1.17796e-12
-1.18212e-12
-1.20283e-12
-1.22079e-12
-1.22649e-12
-1.22545e-12
-1.25642e-12
-1.29928e-12
-1.31149e-12
-1.3064e-12
-1.33485e-12
-1.30826e-12
-1.26535e-12
-1.24427e-12
-1.23279e-12
-1.17283e-12
-1.11125e-12
-1.04416e-12
-9.85356e-13
-9.43459e-13
-8.83407e-13
-8.103e-13
-7.32371e-13
-6.7501e-13
-6.18234e-13
-5.62605e-13
-4.86877e-13
-4.47645e-13
-3.70948e-13
-2.90736e-13
-2.06097e-13
-1.18423e-13
-6.34663e-14
-3.82448e-14
-1.22878e-12
-1.22821e-12
-1.27804e-12
-1.25296e-12
-1.27998e-12
-1.26957e-12
-1.2523e-12
-1.22834e-12
-1.24552e-12
-1.23645e-12
-1.25135e-12
-1.26648e-12
-1.22064e-12
-1.19527e-12
-1.20101e-12
-1.14348e-12
-1.16629e-12
-1.17448e-12
-1.15703e-12
-1.1456e-12
-1.12131e-12
-1.19888e-12
-1.20328e-12
-1.17171e-12
-1.19565e-12
-1.18233e-12
-1.18569e-12
-1.17837e-12
-1.19192e-12
-1.22852e-12
-1.2346e-12
-1.2302e-12
-1.24477e-12
-1.28805e-12
-1.31616e-12
-1.30696e-12
-1.33548e-12
-1.30392e-12
-1.26025e-12
-1.2409e-12
-1.2281e-12
-1.18296e-12
-1.11003e-12
-1.04271e-12
-9.82334e-13
-9.40994e-13
-8.79098e-13
-8.14948e-13
-7.38508e-13
-6.64017e-13
-6.11546e-13
-5.61451e-13
-4.9263e-13
-4.51675e-13
-3.6944e-13
-2.88432e-13
-2.03454e-13
-1.08862e-13
-5.73971e-14
-3.98929e-14
-1.24226e-12
-1.2169e-12
-1.26265e-12
-1.26602e-12
-1.28225e-12
-1.2596e-12
-1.26539e-12
-1.22645e-12
-1.24425e-12
-1.24333e-12
-1.25453e-12
-1.26307e-12
-1.21124e-12
-1.19789e-12
-1.17388e-12
-1.15034e-12
-1.16206e-12
-1.17853e-12
-1.14867e-12
-1.12869e-12
-1.13311e-12
-1.20517e-12
-1.20395e-12
-1.17835e-12
-1.19705e-12
-1.18938e-12
-1.18546e-12
-1.18306e-12
-1.18179e-12
-1.23201e-12
-1.23225e-12
-1.2464e-12
-1.23938e-12
-1.28042e-12
-1.31758e-12
-1.30591e-12
-1.30918e-12
-1.32143e-12
-1.24948e-12
-1.25632e-12
-1.23847e-12
-1.18867e-12
-1.10485e-12
-1.03054e-12
-9.8695e-13
-9.42168e-13
-8.85239e-13
-8.16539e-13
-7.37312e-13
-6.67052e-13
-6.08441e-13
-5.57898e-13
-4.86116e-13
-4.41287e-13
-3.61249e-13
-2.76285e-13
-2.12393e-13
-1.17295e-13
-5.24114e-14
-1.63532e-14
-1.24751e-12
-1.22419e-12
-1.23909e-12
-1.28299e-12
-1.28758e-12
-1.2633e-12
-1.2475e-12
-1.22741e-12
-1.22137e-12
-1.25251e-12
-1.25998e-12
-1.26807e-12
-1.20699e-12
-1.20295e-12
-1.16104e-12
-1.15507e-12
-1.15833e-12
-1.17751e-12
-1.147e-12
-1.1347e-12
-1.1301e-12
-1.20187e-12
-1.18309e-12
-1.18176e-12
-1.20729e-12
-1.18549e-12
-1.18412e-12
-1.17718e-12
-1.19843e-12
-1.23678e-12
-1.23724e-12
-1.2413e-12
-1.24037e-12
-1.25688e-12
-1.32385e-12
-1.30593e-12
-1.30754e-12
-1.31417e-12
-1.27559e-12
-1.25639e-12
-1.23175e-12
-1.19632e-12
-1.09419e-12
-1.02133e-12
-9.93521e-13
-9.465e-13
-8.84282e-13
-8.25002e-13
-7.40336e-13
-6.65119e-13
-6.08807e-13
-5.46764e-13
-4.77637e-13
-4.32149e-13
-3.55593e-13
-2.7698e-13
-2.1307e-13
-1.20047e-13
-5.12078e-14
-8.20821e-15
-1.25737e-12
-1.21909e-12
-1.21619e-12
-1.27242e-12
-1.29126e-12
-1.27266e-12
-1.26897e-12
-1.23011e-12
-1.2253e-12
-1.2468e-12
-1.28233e-12
-1.25608e-12
-1.20701e-12
-1.20329e-12
-1.14974e-12
-1.14659e-12
-1.1675e-12
-1.18242e-12
-1.13828e-12
-1.13979e-12
-1.13693e-12
-1.19455e-12
-1.19061e-12
-1.194e-12
-1.2176e-12
-1.17542e-12
-1.17056e-12
-1.17684e-12
-1.20824e-12
-1.24671e-12
-1.23338e-12
-1.26863e-12
-1.22268e-12
-1.2358e-12
-1.32316e-12
-1.30091e-12
-1.30352e-12
-1.31711e-12
-1.28141e-12
-1.25588e-12
-1.22986e-12
-1.20358e-12
-1.10277e-12
-1.0191e-12
-9.78704e-13
-9.5429e-13
-8.81809e-13
-8.16258e-13
-7.44583e-13
-6.75107e-13
-6.14162e-13
-5.37954e-13
-4.73651e-13
-4.12114e-13
-3.4077e-13
-2.88421e-13
-2.22331e-13
-1.23028e-13
-4.40394e-14
-1.21811e-14
-1.2601e-12
-1.22028e-12
-1.21296e-12
-1.28187e-12
-1.2899e-12
-1.25228e-12
-1.27001e-12
-1.23466e-12
-1.21861e-12
-1.24487e-12
-1.27515e-12
-1.25502e-12
-1.2096e-12
-1.1994e-12
-1.17148e-12
-1.14791e-12
-1.16556e-12
-1.19153e-12
-1.12254e-12
-1.14677e-12
-1.13196e-12
-1.18597e-12
-1.20356e-12
-1.20631e-12
-1.22724e-12
-1.16647e-12
-1.16493e-12
-1.16997e-12
-1.22545e-12
-1.23495e-12
-1.25253e-12
-1.25648e-12
-1.2063e-12
-1.20118e-12
-1.31834e-12
-1.32327e-12
-1.31012e-12
-1.33069e-12
-1.28562e-12
-1.24624e-12
-1.21265e-12
-1.19958e-12
-1.09493e-12
-1.02778e-12
-9.89159e-13
-9.51016e-13
-8.94058e-13
-8.15576e-13
-7.37277e-13
-6.71122e-13
-6.03971e-13
-5.38097e-13
-4.75493e-13
-4.14921e-13
-3.33336e-13
-2.80366e-13
-2.38018e-13
-1.2995e-13
-2.81822e-14
5.86113e-15
-1.24909e-12
-1.22753e-12
-1.2355e-12
-1.2402e-12
-1.25906e-12
-1.3067e-12
-1.27065e-12
-1.27688e-12
-1.25873e-12
-1.23025e-12
-1.23625e-12
-1.23044e-12
-1.22057e-12
-1.19942e-12
-1.1912e-12
-1.19419e-12
-1.19201e-12
-1.16696e-12
-1.1701e-12
-1.18296e-12
-1.21574e-12
-1.1835e-12
-1.16566e-12
-1.16524e-12
-1.16351e-12
-1.16592e-12
-1.19362e-12
-1.18655e-12
-1.2223e-12
-1.21229e-12
-1.23846e-12
-1.25066e-12
-1.26943e-12
-1.31018e-12
-1.3065e-12
-1.33195e-12
-1.34726e-12
-1.28803e-12
-1.26384e-12
-1.22903e-12
-1.19353e-12
-1.17954e-12
-1.15313e-12
-1.09288e-12
-1.04499e-12
-9.88945e-13
-9.18774e-13
-8.47899e-13
-7.72783e-13
-6.91397e-13
-6.2887e-13
-5.45229e-13
-4.69747e-13
-4.08978e-13
-3.52753e-13
-2.78855e-13
-2.23088e-13
-1.54411e-13
-1.04346e-13
-4.8706e-14
-1.24973e-12
-1.22331e-12
-1.23316e-12
-1.24414e-12
-1.26077e-12
-1.30061e-12
-1.27939e-12
-1.25973e-12
-1.26836e-12
-1.22323e-12
-1.23936e-12
-1.23497e-12
-1.23334e-12
-1.18717e-12
-1.19708e-12
-1.18793e-12
-1.19734e-12
-1.17848e-12
-1.16525e-12
-1.1885e-12
-1.21888e-12
-1.17874e-12
-1.17285e-12
-1.16233e-12
-1.16255e-12
-1.17788e-12
-1.18011e-12
-1.19034e-12
-1.21444e-12
-1.2159e-12
-1.23716e-12
-1.24766e-12
-1.27627e-12
-1.30845e-12
-1.31539e-12
-1.33148e-12
-1.34002e-12
-1.28398e-12
-1.26584e-12
-1.23009e-12
-1.19633e-12
-1.17271e-12
-1.15417e-12
-1.09946e-12
-1.0466e-12
-9.94295e-13
-9.21345e-13
-8.41787e-13
-7.68645e-13
-6.84662e-13
-6.22544e-13
-5.44257e-13
-4.71727e-13
-4.14455e-13
-3.51583e-13
-2.79615e-13
-2.18314e-13
-1.50944e-13
-1.08366e-13
-4.23967e-14
-1.25025e-12
-1.22539e-12
-1.23094e-12
-1.24909e-12
-1.26796e-12
-1.30215e-12
-1.27826e-12
-1.24722e-12
-1.25311e-12
-1.23666e-12
-1.23167e-12
-1.23767e-12
-1.23577e-12
-1.18689e-12
-1.19836e-12
-1.18657e-12
-1.20613e-12
-1.18255e-12
-1.15972e-12
-1.19299e-12
-1.21768e-12
-1.17994e-12
-1.17936e-12
-1.17504e-12
-1.16082e-12
-1.17687e-12
-1.17468e-12
-1.1882e-12
-1.21521e-12
-1.20497e-12
-1.23846e-12
-1.25594e-12
-1.28643e-12
-1.3012e-12
-1.32628e-12
-1.3184e-12
-1.33609e-12
-1.27744e-12
-1.276e-12
-1.24196e-12
-1.19892e-12
-1.16783e-12
-1.15484e-12
-1.09965e-12
-1.03657e-12
-9.86595e-13
-9.21058e-13
-8.41273e-13
-7.629e-13
-6.7464e-13
-6.20374e-13
-5.48948e-13
-4.7551e-13
-4.12611e-13
-3.42908e-13
-2.88073e-13
-2.19906e-13
-1.57941e-13
-1.12547e-13
-3.89701e-14
-1.24568e-12
-1.23364e-12
-1.24332e-12
-1.23618e-12
-1.27408e-12
-1.29391e-12
-1.27277e-12
-1.25384e-12
-1.24418e-12
-1.22478e-12
-1.2459e-12
-1.25045e-12
-1.22771e-12
-1.18633e-12
-1.19389e-12
-1.17871e-12
-1.22381e-12
-1.18703e-12
-1.13883e-12
-1.19286e-12
-1.22205e-12
-1.18458e-12
-1.1806e-12
-1.16474e-12
-1.16448e-12
-1.17761e-12
-1.18288e-12
-1.17248e-12
-1.20689e-12
-1.21809e-12
-1.24075e-12
-1.24799e-12
-1.30337e-12
-1.30403e-12
-1.31897e-12
-1.30903e-12
-1.33057e-12
-1.28523e-12
-1.28103e-12
-1.24745e-12
-1.18765e-12
-1.17089e-12
-1.15876e-12
-1.10607e-12
-1.03707e-12
-9.71438e-13
-9.12595e-13
-8.32223e-13
-7.64239e-13
-6.78279e-13
-6.11675e-13
-5.39724e-13
-4.86152e-13
-4.10319e-13
-3.48204e-13
-2.93731e-13
-2.24118e-13
-1.5678e-13
-1.09169e-13
-3.8721e-14
-1.23155e-12
-1.24055e-12
-1.258e-12
-1.2355e-12
-1.2839e-12
-1.27926e-12
-1.27078e-12
-1.24271e-12
-1.24647e-12
-1.22785e-12
-1.23334e-12
-1.25924e-12
-1.23733e-12
-1.18309e-12
-1.19698e-12
-1.17099e-12
-1.22533e-12
-1.17936e-12
-1.15154e-12
-1.1878e-12
-1.20482e-12
-1.189e-12
-1.18174e-12
-1.164e-12
-1.17025e-12
-1.17107e-12
-1.17463e-12
-1.17297e-12
-1.21241e-12
-1.21812e-12
-1.23294e-12
-1.25502e-12
-1.31251e-12
-1.29551e-12
-1.29404e-12
-1.31972e-12
-1.33321e-12
-1.29135e-12
-1.29689e-12
-1.24981e-12
-1.19713e-12
-1.17155e-12
-1.15114e-12
-1.10311e-12
-1.03184e-12
-9.66598e-13
-9.09869e-13
-8.35283e-13
-7.63242e-13
-6.79178e-13
-6.14143e-13
-5.41591e-13
-4.85844e-13
-4.03584e-13
-3.47115e-13
-3.06008e-13
-2.21891e-13
-1.58454e-13
-1.09546e-13
-3.7304e-14
-1.22241e-12
-1.24528e-12
-1.27026e-12
-1.24495e-12
-1.28584e-12
-1.26912e-12
-1.27321e-12
-1.23974e-12
-1.24372e-12
-1.23081e-12
-1.22726e-12
-1.25207e-12
-1.25025e-12
-1.18177e-12
-1.17423e-12
-1.20669e-12
-1.21448e-12
-1.22799e-12
-1.15716e-12
-1.16395e-12
-1.20971e-12
-1.19031e-12
-1.18615e-12
-1.17092e-12
-1.17699e-12
-1.16651e-12
-1.17033e-12
-1.17005e-12
-1.21843e-12
-1.21759e-12
-1.23118e-12
-1.2542e-12
-1.29491e-12
-1.30944e-12
-1.2958e-12
-1.31846e-12
-1.33523e-12
-1.31204e-12
-1.29273e-12
-1.25241e-12
-1.19134e-12
-1.16782e-12
-1.13894e-12
-1.10256e-12
-1.03104e-12
-9.65649e-13
-9.00433e-13
-8.38774e-13
-7.63126e-13
-6.73135e-13
-6.10747e-13
-5.40983e-13
-4.76016e-13
-4.01105e-13
-3.59554e-13
-3.16819e-13
-2.20571e-13
-1.56831e-13
-1.11636e-13
-4.00901e-14
-1.21094e-12
-1.26292e-12
-1.27045e-12
-1.25756e-12
-1.27198e-12
-1.27091e-12
-1.26694e-12
-1.24227e-12
-1.2485e-12
-1.23814e-12
-1.22757e-12
-1.24975e-12
-1.25904e-12
-1.18838e-12
-1.20419e-12
-1.16402e-12
-1.17841e-12
-1.21964e-12
-1.1789e-12
-1.19563e-12
-1.19811e-12
-1.20151e-12
-1.18181e-12
-1.17208e-12
-1.16055e-12
-1.17713e-12
-1.17288e-12
-1.17955e-12
-1.20842e-12
-1.21902e-12
-1.23802e-12
-1.25419e-12
-1.27385e-12
-1.30566e-12
-1.30223e-12
-1.32212e-12
-1.3416e-12
-1.30745e-12
-1.28567e-12
-1.24979e-12
-1.20192e-12
-1.15652e-12
-1.134e-12
-1.1002e-12
-1.02846e-12
-9.71524e-13
-8.87954e-13
-8.25931e-13
-7.5573e-13
-6.7186e-13
-6.12374e-13
-5.45657e-13
-4.71322e-13
-4.0211e-13
-3.6798e-13
-3.0925e-13
-2.27938e-13
-1.54863e-13
-1.01378e-13
-4.29516e-14
-1.22163e-12
-1.26417e-12
-1.27097e-12
-1.26608e-12
-1.26781e-12
-1.26035e-12
-1.26103e-12
-1.2416e-12
-1.24759e-12
-1.23483e-12
-1.23364e-12
-1.24585e-12
-1.26304e-12
-1.18449e-12
-1.19374e-12
-1.25001e-12
-1.20082e-12
-1.14471e-12
-1.19912e-12
-1.14228e-12
-1.17833e-12
-1.20163e-12
-1.19359e-12
-1.17846e-12
-1.16151e-12
-1.18053e-12
-1.17204e-12
-1.17983e-12
-1.20013e-12
-1.22846e-12
-1.23895e-12
-1.23937e-12
-1.27631e-12
-1.31591e-12
-1.29808e-12
-1.32144e-12
-1.33515e-12
-1.30903e-12
-1.3013e-12
-1.23726e-12
-1.19326e-12
-1.15735e-12
-1.14703e-12
-1.087e-12
-1.01286e-12
-9.68041e-13
-8.9377e-13
-8.32803e-13
-7.59323e-13
-6.59713e-13
-6.07926e-13
-5.46568e-13
-4.70338e-13
-4.08019e-13
-3.73466e-13
-3.01071e-13
-2.24959e-13
-1.53784e-13
-8.9933e-14
-4.04927e-14
-1.23232e-12
-1.24415e-12
-1.27611e-12
-1.27052e-12
-1.27663e-12
-1.25285e-12
-1.2706e-12
-1.23284e-12
-1.2262e-12
-1.24219e-12
-1.25292e-12
-1.22521e-12
-1.24913e-12
-1.20744e-12
-1.21416e-12
-1.22797e-12
-1.15748e-12
-1.18815e-12
-1.20546e-12
-1.12379e-12
-1.13902e-12
-1.20287e-12
-1.19507e-12
-1.17257e-12
-1.17374e-12
-1.19251e-12
-1.1583e-12
-1.18069e-12
-1.20022e-12
-1.22829e-12
-1.24216e-12
-1.24537e-12
-1.26895e-12
-1.30249e-12
-1.30343e-12
-1.32461e-12
-1.34316e-12
-1.32114e-12
-1.27951e-12
-1.24236e-12
-1.19825e-12
-1.15014e-12
-1.14689e-12
-1.08288e-12
-1.00468e-12
-9.58567e-13
-8.84562e-13
-8.33232e-13
-7.6338e-13
-6.47865e-13
-6.18692e-13
-5.58284e-13
-4.84085e-13
-4.23265e-13
-3.64234e-13
-3.00045e-13
-2.2356e-13
-1.39361e-13
-7.65294e-14
-3.13681e-14
-1.22818e-12
-1.25716e-12
-1.27626e-12
-1.26867e-12
-1.27976e-12
-1.26229e-12
-1.25598e-12
-1.23003e-12
-1.2396e-12
-1.23608e-12
-1.25862e-12
-1.23852e-12
-1.23136e-12
-1.24512e-12
-1.21281e-12
-1.22368e-12
-1.16247e-12
-1.19337e-12
-1.16517e-12
-1.15123e-12
-1.1493e-12
-1.21155e-12
-1.20151e-12
-1.17794e-12
-1.17069e-12
-1.18226e-12
-1.15206e-12
-1.20533e-12
-1.19012e-12
-1.23093e-12
-1.24013e-12
-1.24492e-12
-1.26331e-12
-1.29791e-12
-1.30179e-12
-1.32714e-12
-1.33598e-12
-1.32651e-12
-1.27505e-12
-1.25934e-12
-1.20571e-12
-1.14365e-12
-1.12573e-12
-1.0943e-12
-1.01203e-12
-9.60179e-13
-8.70158e-13
-8.22781e-13
-7.5742e-13
-6.57614e-13
-6.2214e-13
-5.68574e-13
-4.85652e-13
-4.31328e-13
-3.63254e-13
-3.01498e-13
-2.25847e-13
-1.34157e-13
-6.22947e-14
-3.40667e-14
-1.22565e-12
-1.24893e-12
-1.26095e-12
-1.28054e-12
-1.29265e-12
-1.25435e-12
-1.25507e-12
-1.22913e-12
-1.24084e-12
-1.22982e-12
-1.25906e-12
-1.26195e-12
-1.22003e-12
-1.20673e-12
-1.21377e-12
-1.19654e-12
-1.14193e-12
-1.19413e-12
-1.1678e-12
-1.14749e-12
-1.17522e-12
-1.21304e-12
-1.20747e-12
-1.17243e-12
-1.18249e-12
-1.17685e-12
-1.15283e-12
-1.20101e-12
-1.20837e-12
-1.22758e-12
-1.22965e-12
-1.24023e-12
-1.26898e-12
-1.28658e-12
-1.29779e-12
-1.33199e-12
-1.3481e-12
-1.31815e-12
-1.28169e-12
-1.24469e-12
-1.2057e-12
-1.1525e-12
-1.12655e-12
-1.07645e-12
-1.00682e-12
-9.49087e-13
-8.683e-13
-8.06158e-13
-7.40957e-13
-6.75202e-13
-6.39425e-13
-5.56274e-13
-4.75914e-13
-4.28915e-13
-3.69396e-13
-3.02706e-13
-2.35212e-13
-1.26063e-13
-5.30574e-14
-3.74e-14
-1.23321e-12
-1.2293e-12
-1.27113e-12
-1.27464e-12
-1.28588e-12
-1.26016e-12
-1.26237e-12
-1.21706e-12
-1.24856e-12
-1.2321e-12
-1.25834e-12
-1.26511e-12
-1.23436e-12
-1.17973e-12
-1.17889e-12
-1.21846e-12
-1.16848e-12
-1.18536e-12
-1.19969e-12
-1.12626e-12
-1.15769e-12
-1.21433e-12
-1.19842e-12
-1.16588e-12
-1.19235e-12
-1.18103e-12
-1.16111e-12
-1.19345e-12
-1.21202e-12
-1.21725e-12
-1.22912e-12
-1.23626e-12
-1.2644e-12
-1.2919e-12
-1.30235e-12
-1.31831e-12
-1.34123e-12
-1.32538e-12
-1.2661e-12
-1.2453e-12
-1.21492e-12
-1.16054e-12
-1.11905e-12
-1.05605e-12
-1.00673e-12
-9.39485e-13
-8.65004e-13
-8.08438e-13
-7.37799e-13
-6.76762e-13
-6.36137e-13
-5.58444e-13
-4.84474e-13
-4.33253e-13
-3.66452e-13
-2.93042e-13
-2.17882e-13
-1.3191e-13
-5.76745e-14
-3.63155e-14
-1.23144e-12
-1.23287e-12
-1.27611e-12
-1.26671e-12
-1.27778e-12
-1.24673e-12
-1.26946e-12
-1.23503e-12
-1.23404e-12
-1.24149e-12
-1.26001e-12
-1.26374e-12
-1.20793e-12
-1.18225e-12
-1.1719e-12
-1.14975e-12
-1.13436e-12
-1.13652e-12
-1.17992e-12
-1.14896e-12
-1.11759e-12
-1.19378e-12
-1.20858e-12
-1.15846e-12
-1.20684e-12
-1.17658e-12
-1.1672e-12
-1.18894e-12
-1.20026e-12
-1.217e-12
-1.23774e-12
-1.22433e-12
-1.26001e-12
-1.29012e-12
-1.30959e-12
-1.31303e-12
-1.33764e-12
-1.31943e-12
-1.25929e-12
-1.23994e-12
-1.22441e-12
-1.17506e-12
-1.12007e-12
-1.0448e-12
-1.00073e-12
-9.35349e-13
-8.72461e-13
-8.07545e-13
-7.44807e-13
-6.74002e-13
-6.18057e-13
-5.63819e-13
-4.90562e-13
-4.3374e-13
-3.7103e-13
-2.88962e-13
-1.99817e-13
-1.25138e-13
-6.18289e-14
-2.70773e-14
-1.23968e-12
-1.22636e-12
-1.27054e-12
-1.26198e-12
-1.27425e-12
-1.25872e-12
-1.25232e-12
-1.24766e-12
-1.2392e-12
-1.24092e-12
-1.25907e-12
-1.25194e-12
-1.22066e-12
-1.18246e-12
-1.19503e-12
-1.15334e-12
-1.16963e-12
-1.16429e-12
-1.15582e-12
-1.12987e-12
-1.14568e-12
-1.19843e-12
-1.19686e-12
-1.1782e-12
-1.20327e-12
-1.18115e-12
-1.17784e-12
-1.18331e-12
-1.19043e-12
-1.22893e-12
-1.24456e-12
-1.21902e-12
-1.2537e-12
-1.29121e-12
-1.31293e-12
-1.3032e-12
-1.33206e-12
-1.30594e-12
-1.26991e-12
-1.24179e-12
-1.22364e-12
-1.19013e-12
-1.11305e-12
-1.04512e-12
-9.90771e-13
-9.3703e-13
-8.80242e-13
-8.02618e-13
-7.43434e-13
-6.65306e-13
-6.14215e-13
-5.72359e-13
-4.9257e-13
-4.35864e-13
-3.74026e-13
-2.82958e-13
-1.97126e-13
-1.20274e-13
-6.03647e-14
-3.21795e-14
-1.24179e-12
-1.21565e-12
-1.25485e-12
-1.27222e-12
-1.27321e-12
-1.26917e-12
-1.26508e-12
-1.23731e-12
-1.24644e-12
-1.23995e-12
-1.26656e-12
-1.24459e-12
-1.20862e-12
-1.19248e-12
-1.1892e-12
-1.1468e-12
-1.15473e-12
-1.15889e-12
-1.15117e-12
-1.14397e-12
-1.13632e-12
-1.19801e-12
-1.1981e-12
-1.1858e-12
-1.19809e-12
-1.19031e-12
-1.18636e-12
-1.16968e-12
-1.19537e-12
-1.22938e-12
-1.23785e-12
-1.23472e-12
-1.249e-12
-1.27529e-12
-1.31718e-12
-1.30354e-12
-1.31016e-12
-1.31972e-12
-1.26849e-12
-1.24983e-12
-1.22753e-12
-1.19572e-12
-1.10129e-12
-1.03367e-12
-9.8732e-13
-9.42475e-13
-8.8628e-13
-8.14082e-13
-7.41654e-13
-6.61263e-13
-6.12903e-13
-5.69218e-13
-4.81006e-13
-4.33627e-13
-3.59076e-13
-2.77513e-13
-2.1462e-13
-1.23974e-13
-5.10131e-14
-1.84624e-14
-1.25181e-12
-1.21862e-12
-1.22456e-12
-1.28226e-12
-1.28379e-12
-1.26122e-12
-1.26281e-12
-1.23551e-12
-1.23606e-12
-1.24268e-12
-1.27302e-12
-1.26395e-12
-1.19842e-12
-1.19874e-12
-1.17254e-12
-1.15725e-12
-1.15293e-12
-1.15941e-12
-1.15264e-12
-1.14899e-12
-1.14267e-12
-1.1916e-12
-1.18863e-12
-1.18372e-12
-1.20422e-12
-1.18213e-12
-1.18559e-12
-1.16792e-12
-1.19676e-12
-1.23898e-12
-1.24041e-12
-1.2448e-12
-1.23651e-12
-1.26982e-12
-1.30746e-12
-1.30042e-12
-1.31754e-12
-1.31781e-12
-1.27353e-12
-1.25106e-12
-1.22249e-12
-1.19355e-12
-1.10175e-12
-1.02794e-12
-9.87612e-13
-9.46285e-13
-8.85056e-13
-8.229e-13
-7.41669e-13
-6.71446e-13
-6.09853e-13
-5.51258e-13
-4.75516e-13
-4.25877e-13
-3.57472e-13
-2.76972e-13
-2.09821e-13
-1.22155e-13
-4.39646e-14
-1.29851e-14
-1.25891e-12
-1.21591e-12
-1.21474e-12
-1.27852e-12
-1.28247e-12
-1.27355e-12
-1.26952e-12
-1.22691e-12
-1.23211e-12
-1.24641e-12
-1.29364e-12
-1.262e-12
-1.20198e-12
-1.18233e-12
-1.16317e-12
-1.15636e-12
-1.15141e-12
-1.17563e-12
-1.14673e-12
-1.15077e-12
-1.1358e-12
-1.18015e-12
-1.19038e-12
-1.18808e-12
-1.22038e-12
-1.17482e-12
-1.16904e-12
-1.17364e-12
-1.20863e-12
-1.24179e-12
-1.24186e-12
-1.26881e-12
-1.20649e-12
-1.24819e-12
-1.31661e-12
-1.30138e-12
-1.30807e-12
-1.31689e-12
-1.28224e-12
-1.25253e-12
-1.22212e-12
-1.20332e-12
-1.10454e-12
-1.01468e-12
-9.7968e-13
-9.58774e-13
-8.84414e-13
-8.1747e-13
-7.4339e-13
-6.73373e-13
-6.0292e-13
-5.43553e-13
-4.72767e-13
-4.14217e-13
-3.4256e-13
-2.84046e-13
-2.20031e-13
-1.22641e-13
-4.19072e-14
-1.67455e-14
-1.27092e-12
-1.21693e-12
-1.21499e-12
-1.27114e-12
-1.27964e-12
-1.26482e-12
-1.27262e-12
-1.23694e-12
-1.21689e-12
-1.25292e-12
-1.28354e-12
-1.26315e-12
-1.20099e-12
-1.19391e-12
-1.15815e-12
-1.15478e-12
-1.15662e-12
-1.18749e-12
-1.12995e-12
-1.16007e-12
-1.13199e-12
-1.17449e-12
-1.19494e-12
-1.20012e-12
-1.23518e-12
-1.16751e-12
-1.16548e-12
-1.16378e-12
-1.20759e-12
-1.24622e-12
-1.25151e-12
-1.25415e-12
-1.20969e-12
-1.23404e-12
-1.31754e-12
-1.29614e-12
-1.31063e-12
-1.32946e-12
-1.28453e-12
-1.24333e-12
-1.2197e-12
-1.20385e-12
-1.0962e-12
-1.01621e-12
-9.728e-13
-9.54113e-13
-8.98557e-13
-8.17194e-13
-7.47438e-13
-6.77309e-13
-5.9348e-13
-5.37492e-13
-4.74103e-13
-4.02739e-13
-3.42344e-13
-2.81997e-13
-2.30711e-13
-1.30635e-13
-2.89433e-14
-1.63324e-16
-1.26217e-12
-1.22792e-12
-1.22331e-12
-1.24082e-12
-1.25995e-12
-1.30958e-12
-1.27888e-12
-1.26395e-12
-1.25943e-12
-1.23005e-12
-1.22604e-12
-1.23462e-12
-1.22927e-12
-1.19656e-12
-1.19375e-12
-1.20337e-12
-1.18079e-12
-1.15825e-12
-1.16449e-12
-1.18758e-12
-1.21562e-12
-1.18367e-12
-1.16446e-12
-1.1673e-12
-1.16713e-12
-1.16686e-12
-1.19398e-12
-1.20124e-12
-1.20628e-12
-1.209e-12
-1.24698e-12
-1.25051e-12
-1.26764e-12
-1.29704e-12
-1.30927e-12
-1.33748e-12
-1.34239e-12
-1.30183e-12
-1.26649e-12
-1.22599e-12
-1.1945e-12
-1.18778e-12
-1.14614e-12
-1.08949e-12
-1.04642e-12
-9.90269e-13
-9.14449e-13
-8.45106e-13
-7.69867e-13
-6.89796e-13
-6.3769e-13
-5.47899e-13
-4.70463e-13
-4.0784e-13
-3.53232e-13
-2.71638e-13
-2.23133e-13
-1.5443e-13
-9.68015e-14
-4.0714e-14
-1.26603e-12
-1.22195e-12
-1.23025e-12
-1.24513e-12
-1.26289e-12
-1.3028e-12
-1.27916e-12
-1.25635e-12
-1.26211e-12
-1.22278e-12
-1.23758e-12
-1.24283e-12
-1.22651e-12
-1.19078e-12
-1.19342e-12
-1.20289e-12
-1.18407e-12
-1.16543e-12
-1.16493e-12
-1.18995e-12
-1.2194e-12
-1.18003e-12
-1.16881e-12
-1.16472e-12
-1.16923e-12
-1.16797e-12
-1.18097e-12
-1.20023e-12
-1.2117e-12
-1.20857e-12
-1.24941e-12
-1.24669e-12
-1.27402e-12
-1.30327e-12
-1.31805e-12
-1.32388e-12
-1.34017e-12
-1.29981e-12
-1.27241e-12
-1.22252e-12
-1.18877e-12
-1.17544e-12
-1.15141e-12
-1.0928e-12
-1.04506e-12
-9.96376e-13
-9.17425e-13
-8.45078e-13
-7.66515e-13
-6.85878e-13
-6.32859e-13
-5.54825e-13
-4.72928e-13
-4.04681e-13
-3.48874e-13