/*--------------------------------*- C++ -*----------------------------------*\
  =========                 |
  \\      /  F ield         | OpenFOAM: The Open Source CFD Toolbox
   \\    /   O peration     | Website:  https://openfoam.org
    \\  /    A nd           | Version:  13
     \\/     M anipulation  |
\*---------------------------------------------------------------------------*/
FoamFile
{
    format      ascii;
    class       volVectorField;
    location    "10";
    object      U;
}
// * * * * * * * * * * * * * * * * * * * * * * * * * * * * * * * * * * * * * //

dimensions      [0 1 -1 0 0 0 0];

internalField   nonuniform List<vector> 
54636
(
(20 4.09291e-16 3.56007e-16)
(20 1.27869e-16 6.85341e-17)
(20 -4.53155e-16 2.61876e-16)
(20 -3.5496e-16 -4.45221e-16)
(20 -3.44555e-16 -5.01852e-16)
(20 -4.05051e-16 -3.26292e-16)
(20 7.7629e-16 -4.03185e-16)
(20 7.40943e-16 7.29772e-16)
(20 7.93607e-16 -4.3196e-17)
(20 -2.98696e-16 -4.9943e-16)
(20 -1.33905e-16 5.6373e-17)
(20 -3.27433e-16 -2.65765e-16)
(20 1.07612e-16 3.57044e-16)
(20 -2.89176e-16 2.64984e-16)
(20 -1.72789e-17 4.02798e-16)
(20 -2.37243e-16 7.79924e-16)
(20 -6.04946e-16 -3.71477e-16)
(20 9.61708e-17 -5.64447e-16)
(20 -9.086e-17 1.33475e-16)
(20 -5.92589e-16 -5.37949e-16)
(20 -6.83152e-16 -1.72804e-16)
(20 -1.58795e-16 -9.39925e-16)
(20 -3.84406e-17 -4.85673e-16)
(20 4.81399e-16 6.81583e-16)
(20 1.04108e-15 1.17112e-15)
(20 7.63151e-16 9.18083e-16)
(20 -5.47744e-17 6.169e-16)
(20 -2.72879e-16 -5.71904e-16)
(20 -3.73709e-16 -6.75889e-16)
(20 6.84805e-17 -3.04188e-16)
(20 5.25974e-16 5.36253e-16)
(20 3.77557e-16 5.48113e-16)
(20 -3.14554e-16 -1.52042e-16)
(20 -7.7187e-17 -5.49871e-16)
(20 2.10037e-16 2.44391e-17)
(20 -3.50205e-16 -4.03951e-16)
(20 -9.89351e-17 -9.35443e-16)
(20 -1.17131e-15 -1.51458e-15)
(20 -8.44539e-16 -1.43283e-15)
(20 -4.23449e-16 -7.61102e-16)
(20 4.01169e-16 6.18239e-16)
(20 2.08342e-16 1.20058e-15)
(20 5.77176e-17 9.02235e-16)
(20 6.81761e-16 7.41533e-16)
(20 5.21916e-16 6.82571e-16)
(20 5.49683e-16 9.47212e-16)
(20 2.24782e-16 4.57425e-16)
(20 6.58843e-16 -1.87404e-16)
(20 4.28432e-16 4.73459e-17)
(20 -2.13613e-16 5.67169e-17)
(20 -7.20938e-16 9.45548e-18)
(20 -1.87243e-16 2.35306e-16)
(20 2.52359e-16 3.44651e-16)
(20 4.82937e-16 6.54261e-16)
(20 -1.69922e-16 3.06772e-16)
(20 1.78544e-16 -8.16827e-17)
(20 5.17073e-16 4.75764e-17)
(20 4.6979e-16 1.81734e-16)
(20 -3.27754e-16 -1.85258e-16)
(20 -8.45231e-16 -9.72941e-17)
(20 2.04572e-16 2.26164e-16)
(20 -1.07393e-16 2.68701e-16)
(20 -5.84559e-17 4.06803e-16)
(20 2.11278e-16 -2.32144e-16)
(20 3.96249e-16 -4.55193e-17)
(20 3.61593e-17 5.78296e-17)
(20 1.2676e-15 -3.67141e-16)
(20 8.1192e-16 -2.06884e-16)
(20 1.13126e-16 -6.61021e-16)
(20 -3.55375e-16 -5.62692e-16)
(20 -8.75051e-16 -2.3325e-16)
(20 -8.01203e-16 -1.28038e-16)
(20 7.53933e-16 5.72854e-16)
(20 1.27667e-16 -2.18379e-17)
(20 2.90475e-16 2.0923e-16)
(20 -9.82225e-16 5.12978e-16)
(20 -5.92862e-16 9.95295e-17)
(20 1.73318e-16 -4.66381e-16)
(20 -7.32754e-16 -2.32311e-16)
(20 -1.17418e-15 -3.96293e-16)
(20 -3.17874e-16 2.73323e-16)
(20 5.48511e-17 -8.56446e-16)
(20 1.02557e-15 -2.68821e-17)
(20 1.69737e-15 1.75136e-16)
(20 1.9652e-15 -1.41061e-16)
(20 1.45522e-15 5.59483e-16)
(20 1.9476e-16 1.96286e-16)
(20 -1.5199e-16 1.36204e-16)
(20 -9.67586e-16 -2.02643e-16)
(20 -5.83824e-16 -2.04871e-16)
(20 -2.55068e-16 -4.26907e-17)
(20 -2.1723e-16 -2.78267e-16)
(20 -1.11178e-16 1.85285e-16)
(20 -2.72348e-16 -4.97373e-16)
(20 7.61504e-16 1.75172e-16)
(20 2.87666e-16 5.51778e-17)
(20 4.18575e-18 -8.19194e-16)
(20 -1.85728e-15 -4.74053e-16)
(20 -1.4297e-15 -7.24021e-16)
(20 -5.00907e-16 -3.82968e-16)
(20 9.05449e-16 4.40085e-16)
(20 5.01498e-16 5.93483e-16)
(20 -2.98671e-16 3.60077e-16)
(20 1.91743e-16 2.35541e-16)
(20 2.68893e-16 2.7537e-16)
(20 9.35815e-17 6.50008e-16)
(20 -4.22897e-16 2.89319e-16)
(20 2.69645e-16 -5.39572e-16)
(20 5.82254e-16 -5.29068e-17)
(20 -7.63502e-16 -1.58244e-16)
(20 -1.52151e-15 -5.09439e-17)
(20 -4.19873e-16 9.98833e-17)
(20 3.24037e-16 1.59012e-16)
(20 4.71775e-16 2.56564e-16)
(20 -1.69775e-16 3.86254e-16)
(20 4.57578e-16 -1.8443e-16)
(20 7.27139e-16 -2.39059e-16)
(20 3.6172e-16 -3.55498e-16)
(20 1.86065e-17 1.44506e-16)
(20 -5.47826e-16 4.1866e-16)
(20 -8.46807e-17 3.25439e-16)
(20 3.21037e-16 4.98903e-16)
(20 7.93889e-16 -1.42853e-16)
(20 -3.64029e-16 -4.75822e-16)
(20 1.19573e-15 7.26269e-17)
(20 8.05165e-16 3.54867e-16)
(20 7.31063e-16 -1.1966e-16)
(20 8.02648e-16 -1.22414e-16)
(20 -3.6671e-16 -5.02317e-16)
(20 -1.21294e-16 -5.78265e-16)
(20 -1.37777e-15 -3.10008e-16)
(20 -8.73117e-16 -3.58911e-16)
(20 3.323e-16 7.0805e-17)
(20 1.20176e-16 -1.38744e-16)
(20 1.55932e-16 1.39669e-16)
(20 -1.03248e-15 9.02807e-16)
(20 1.15822e-16 5.82851e-17)
(20 3.95653e-16 -7.75716e-17)
(20 -3.23231e-16 1.17597e-16)
(20 -1.05193e-15 2.75898e-16)
(20 3.31721e-16 -1.5031e-16)
(20 2.01352e-16 -7.52051e-16)
(20 7.30568e-16 -3.1082e-16)
(20 9.07948e-16 3.91487e-16)
(20 1.31229e-15 -4.00724e-16)
(20 1.56522e-15 2.76403e-16)
(20 6.15631e-16 -6.3858e-17)
(20 -2.44069e-16 2.00922e-16)
(20 -1.60399e-15 6.19758e-16)
(20 -1.64179e-16 -3.18683e-16)
(20 -4.07743e-16 -5.75798e-17)
(20 -9.06478e-16 -1.5349e-16)
(20 9.51123e-16 3.60938e-16)
(20 7.63732e-17 -4.42722e-16)
(20 8.9293e-16 6.42623e-18)
(20 7.15034e-16 -2.42906e-16)
(20 -6.77193e-16 -3.77881e-16)
(20 -8.27674e-16 1.41661e-16)
(20 -7.00308e-16 1.57917e-16)
(20 2.74831e-16 2.06617e-16)
(20 1.80397e-16 1.99744e-16)
(20 6.09126e-16 1.67199e-16)
(20 -4.16411e-16 3.97112e-16)
(20 -5.42322e-16 1.88929e-16)
(20 5.62376e-17 -3.23521e-16)
(20 -3.099e-16 1.56921e-16)
(20 -6.5192e-16 3.48657e-16)
(20 -5.7473e-16 -9.32284e-17)
(20 3.81064e-16 -1.4571e-16)
(20 -2.77088e-16 -2.67258e-16)
(20 -7.06446e-16 2.22167e-16)
(20 -1.33338e-16 7.56269e-17)
(20 3.76295e-16 -1.21623e-16)
(20 9.89163e-17 1.30634e-16)
(20 -2.41056e-16 1.06356e-16)
(20 2.45616e-16 -1.10334e-16)
(20 4.99898e-16 -2.58034e-16)
(20 2.17965e-16 -2.36983e-16)
(20 1.12611e-16 -7.09855e-17)
(20 -1.27306e-16 1.22211e-16)
(20 -1.45087e-15 1.24368e-16)
(20 -2.92595e-16 8.32565e-17)
(20 -7.90744e-17 -1.33623e-16)
(20 -1.10447e-15 -3.27284e-17)
(20 1.39888e-15 -1.44998e-16)
(20 1.42749e-15 2.16971e-16)
(20 3.91029e-16 -4.3965e-16)
(20 7.27452e-17 -4.37835e-16)
(20 -7.76676e-17 -4.98381e-16)
(20 -3.92277e-16 -6.20454e-16)
(20 -9.13983e-16 6.10094e-17)
(20 -3.90691e-16 3.40852e-16)
(20 -4.01944e-16 3.9875e-16)
(20 7.87089e-16 3.15506e-17)
(20 -6.87125e-16 -4.67008e-17)
(20 -2.97907e-16 4.40165e-16)
(20 -2.50946e-16 5.68368e-17)
(20 3.74463e-16 1.09843e-16)
(20 4.06332e-16 -2.50385e-16)
(20 -1.01565e-16 3.22177e-16)
(20 -5.29526e-16 -1.87483e-16)
(20 -1.53833e-16 -6.45717e-16)
(20 -2.06399e-16 2.01291e-16)
(20 -3.70216e-16 4.89072e-16)
(20 5.13591e-17 -2.73074e-16)
(20 5.1713e-16 -6.46138e-16)
(20 -1.8567e-16 -2.24718e-16)
(20 -9.6081e-16 7.47921e-17)
(20 -8.691e-16 8.40414e-16)
(20 7.22539e-16 -3.9322e-16)
(20 5.04231e-16 3.6104e-16)
(20 -6.61876e-17 5.58312e-17)
(20 1.00523e-15 -2.21177e-16)
(20 2.18816e-16 -4.23029e-16)
(20 -5.00386e-16 -3.39025e-17)
(20 -5.10648e-16 -4.21082e-16)
(20 -5.59016e-16 6.17387e-17)
(20 1.01409e-16 2.36049e-16)
(20 9.92013e-16 2.09108e-16)
(20 6.81404e-16 -1.80198e-16)
(20 -3.42499e-16 1.75645e-16)
(20 3.53651e-16 2.06782e-17)
(20 -7.03287e-16 2.26845e-16)
(20 -1.04406e-15 3.01373e-16)
(20 -6.86361e-16 -8.70744e-17)
(20 -5.21859e-16 1.74958e-16)
(20 -6.64393e-16 9.41197e-17)
(20 1.87066e-16 -5.91007e-16)
(20 1.05084e-15 -2.93304e-16)
(20 3.81562e-16 -1.3643e-16)
(20 -8.71597e-16 -8.48363e-17)
(20 -8.06057e-16 -2.67153e-16)
(20 5.79182e-16 -4.4132e-17)
(20 2.69697e-16 1.9138e-16)
(20 -6.03608e-16 4.33589e-16)
(20 8.44244e-17 -7.73459e-18)
(20 9.44782e-16 -3.11135e-16)
(20 7.04092e-16 -3.1398e-16)
(20 -3.49413e-16 -1.68264e-16)
(20 -5.80484e-16 -1.39708e-16)
(20 -1.21235e-15 8.37604e-16)
(20 -4.52253e-16 4.15716e-16)
(20 3.06315e-16 3.72881e-16)
(20 3.70519e-16 2.96882e-16)
(20 1.08873e-15 -1.92867e-16)
(20 1.12991e-15 -5.6437e-16)
(20 4.26133e-16 -5.60769e-16)
(20 -7.22755e-16 1.24769e-16)
(20 -2.0561e-16 1.22803e-16)
(20 -1.67176e-16 -6.31101e-16)
(20 -6.36789e-16 -3.63382e-16)
(20 -6.58079e-16 3.10293e-16)
(20 -2.28128e-16 4.82624e-16)
(20 -3.03588e-17 -3.30884e-16)
(20 1.47762e-15 2.61319e-16)
(20 -9.11555e-16 8.40631e-17)
(20 -4.62417e-16 -1.21012e-16)
(20 4.39344e-16 3.46685e-17)
(20 2.37816e-17 5.777e-17)
(20 3.32875e-17 7.6744e-16)
(20 8.30049e-17 5.70625e-17)
(20 8.7886e-18 -1.04275e-15)
(20 4.17043e-16 -2.54256e-16)
(20 3.09824e-16 3.00177e-16)
(20 7.81043e-16 3.19183e-16)
(20 5.9996e-17 -3.8177e-16)
(20 -1.27777e-16 -2.65105e-16)
(20 -8.41347e-16 1.57977e-16)
(20 3.03167e-16 8.0718e-16)
(20 6.24196e-16 -2.2416e-16)
(20 5.42052e-16 -8.46521e-17)
(20 -1.37669e-16 -5.42793e-16)
(20 -1.75157e-16 -1.35551e-16)
(20 -2.00932e-16 -1.3954e-16)
(20 -6.99381e-16 -1.36567e-16)
(20 -5.24111e-16 6.03399e-17)
(20 -7.27735e-16 -1.14743e-16)
(20 -9.10768e-17 2.64074e-16)
(20 7.76903e-16 -1.84611e-16)
(20 2.82076e-16 -3.19615e-17)
(20 3.6197e-16 6.94642e-16)
(20 4.91841e-16 2.77444e-16)
(20 -2.2695e-18 4.18213e-16)
(20 -5.05836e-16 4.98791e-16)
(20 -1.11153e-15 3.32971e-16)
(20 -7.88236e-16 3.21459e-16)
(20 -8.19442e-16 1.75116e-16)
(20 3.7178e-16 -1.04288e-15)
(20 8.32468e-16 -1.16591e-15)
(20 8.58031e-17 -3.72913e-16)
(20 -1.06338e-15 9.25051e-16)
(20 -6.2111e-16 6.20735e-16)
(20 -6.96635e-17 -2.12554e-17)
(20 -3.31917e-16 -3.84039e-16)
(20 7.51109e-17 -3.25124e-17)
(20 1.17932e-15 -6.53887e-17)
(20 8.40973e-16 -5.22227e-16)
(20 -1.80456e-16 -3.08829e-16)
(20 -2.80666e-17 -3.10452e-17)
(20 6.22889e-17 1.74213e-16)
(20 -6.26351e-16 1.44667e-16)
(20 6.0768e-16 -1.3681e-16)
(20 1.08791e-15 1.64278e-16)
(20 1.86114e-15 1.5601e-16)
(20 1.0381e-15 1.61048e-16)
(20 -5.51698e-16 -5.8688e-16)
(20 -7.38128e-16 -8.18723e-16)
(20 -1.49162e-16 4.51914e-17)
(20 7.37683e-18 -9.69522e-17)
(20 -3.84912e-16 -3.37354e-16)
(20 3.2488e-16 1.3352e-16)
(20 5.55391e-17 3.92974e-16)
(20 -1.44292e-16 4.5277e-16)
(20 6.34621e-16 -3.62004e-16)
(20 3.36332e-16 8.57625e-17)
(20 -2.65315e-17 8.43681e-16)
(20 -4.22182e-16 -2.49148e-16)
(20 -1.02996e-15 -1.73367e-16)
(20 -7.05604e-18 6.66965e-17)
(20 5.31504e-16 8.88987e-16)
(20 -2.13919e-15 -1.56138e-16)
(20 -6.17186e-16 -3.76799e-16)
(20 6.05047e-16 -1.17551e-16)
(20 1.0918e-15 3.24228e-16)
(20 8.4704e-16 -4.19106e-16)
(20 4.30489e-16 -5.73205e-16)
(20 9.00206e-17 -2.40342e-16)
(20 1.47945e-17 4.2666e-16)
(20 7.39786e-16 6.74312e-16)
(20 6.72516e-16 -5.69171e-16)
(20 -2.51143e-16 -1.55392e-16)
(20 -7.55982e-16 1.29621e-16)
(20 -1.03775e-15 -5.70877e-16)
(20 -3.40651e-16 -8.13308e-17)
(20 2.94199e-16 -9.01302e-17)
(20 4.17389e-16 1.45331e-16)
(20 -7.42915e-16 2.91199e-16)
(20 1.03393e-16 8.83057e-16)
(20 -5.5426e-16 3.4484e-18)
(20 -4.74203e-16 -1.74465e-16)
(20 4.28652e-16 3.39423e-17)
(20 5.09394e-16 -1.17476e-17)
(20 7.94248e-16 -5.46955e-16)
(20 3.50546e-16 -4.69678e-17)
(20 -7.43443e-16 4.62318e-16)
(20 -3.49346e-16 4.28677e-16)
(20 -3.01789e-16 2.92787e-16)
(20 -3.59905e-16 -9.64236e-16)
(20 -3.94513e-16 -8.96969e-16)
(20 -1.43699e-16 -1.53891e-16)
(20 3.17412e-16 7.25135e-16)
(20 4.24889e-16 6.4671e-16)
(20 -3.63004e-16 2.23509e-16)
(20 -1.20817e-15 -1.09765e-16)
(20 -5.00349e-16 -5.43717e-16)
(20 4.81943e-16 -7.29035e-16)
(20 2.48612e-16 -5.79483e-16)
(20 -1.10834e-16 3.42189e-16)
(20 1.39856e-16 1.97789e-16)
(20 1.01611e-15 -1.04354e-16)
(20 -2.2355e-17 5.13704e-16)
(20 7.60745e-16 1.49018e-16)
(20 1.17498e-15 1.90384e-16)
(20 1.76494e-15 1.53164e-16)
(20 6.75206e-16 -4.23157e-16)
(20 -5.48628e-16 -1.70646e-16)
(20 -2.07105e-15 -3.38172e-16)
(20 -7.29214e-16 -2.12988e-16)
(20 -4.61923e-16 -1.22642e-16)
(20 -9.28202e-16 -2.04092e-16)
(20 3.27967e-16 -5.60896e-16)
(20 2.12746e-16 -3.76677e-17)
(20 4.15393e-16 -1.04919e-16)
(20 -9.3311e-16 -2.184e-16)
(20 6.1029e-17 -3.42076e-16)
(20 7.05064e-16 2.24268e-18)
(20 9.23508e-17 -1.0082e-16)
(20 -1.68032e-15 -2.44493e-16)
(20 3.94326e-16 2.13338e-16)
(20 -7.06433e-16 1.72996e-16)
(20 7.35024e-16 3.29686e-16)
(20 -6.61553e-16 2.56927e-16)
(20 3.48232e-16 -5.12064e-16)
(20 3.17348e-16 -1.86898e-16)
(20 -5.37843e-16 -4.32059e-16)
(20 -4.48995e-17 -1.37028e-16)
(20 2.28872e-16 1.21627e-16)
(20 5.88431e-16 4.99033e-16)
(20 -4.61794e-17 6.62198e-17)
(20 1.95107e-16 -9.42858e-16)
(20 5.88375e-17 3.89345e-16)
(20 -1.34254e-16 2.21364e-16)
(20 -1.53386e-15 -9.5333e-16)
(20 -3.15116e-16 1.95271e-16)
(20 6.30484e-17 2.38152e-16)
(20 9.30458e-17 1.1395e-16)
(20 -1.14482e-16 7.5527e-16)
(20 4.96586e-16 7.1069e-16)
(20 -5.24081e-16 2.8835e-16)
(20 -7.88217e-16 -1.98053e-16)
(20 2.71087e-16 9.1525e-17)
(20 5.24819e-16 -3.19978e-16)
(20 7.68699e-16 -9.17427e-16)
(20 1.66701e-17 -9.56333e-17)
(20 -1.59369e-15 3.62678e-16)
(20 -9.03279e-16 9.31235e-17)
(20 1.00689e-16 -1.17079e-16)
(20 7.08722e-17 -1.01523e-15)
(20 4.58812e-16 -7.99667e-16)
(20 4.76508e-16 5.48553e-16)
(20 1.02297e-15 8.14908e-16)
(20 7.88393e-16 4.82379e-16)
(20 -2.82867e-16 9.15115e-17)
(20 -8.32442e-16 5.56829e-17)
(20 -1.52164e-15 4.0649e-17)
(20 -1.99381e-15 -5.54131e-16)
(20 -3.50224e-16 -4.21991e-16)
(20 8.27451e-16 -1.32171e-16)
(20 -1.68212e-16 -1.66723e-16)
(20 2.12917e-16 -4.02105e-16)
(20 1.27009e-15 1.30778e-16)
(20 5.2743e-16 1.18074e-16)
(20 5.71216e-16 -2.10108e-16)
(20 7.87559e-16 -1.2706e-16)
(20 2.35521e-17 -1.02203e-16)
(20 1.01392e-16 -3.91928e-16)
(20 -3.93652e-16 2.10166e-16)
(20 -4.17464e-16 8.87452e-17)
(20 -1.09007e-15 -1.15971e-17)
(20 -1.10369e-15 1.22573e-16)
(20 1.91577e-16 -2.30493e-16)
(20 -4.79e-16 1.41005e-16)
(20 6.64569e-16 -1.85103e-16)
(20 -2.87362e-17 5.22848e-16)
(20 6.86264e-16 -6.34604e-17)
(20 7.16035e-16 2.3413e-16)
(20 -1.07376e-16 -3.45949e-16)
(20 1.62952e-16 -6.69864e-16)
(20 -6.64054e-16 -2.20152e-16)
(20 -1.46514e-15 9.36265e-18)
(20 -4.39735e-16 7.14234e-16)
(20 -4.578e-16 -1.29555e-16)
(20 -2.10318e-16 -4.74041e-16)
(20 -7.55215e-16 3.28106e-16)
(20 -4.82389e-16 -4.8658e-16)
(20 6.29648e-16 -3.01445e-16)
(20 -9.74335e-17 -3.42597e-16)
(20 7.57652e-17 2.03463e-16)
(20 -3.68469e-16 2.5172e-16)
(20 -1.47369e-16 -5.3429e-16)
(20 1.02837e-15 2.94377e-16)
(20 7.90374e-16 1.1829e-16)
(20 -6.32424e-16 2.03075e-17)
(20 -9.2684e-17 4.21573e-16)
(20 -9.96141e-17 -8.16405e-17)
(20 7.64087e-17 -1.35069e-16)
(20 2.53234e-16 5.56925e-16)
(20 6.09182e-16 5.27037e-16)
(20 6.02111e-16 7.5297e-16)
(20 -2.58373e-16 -4.41002e-16)
(20 -1.81858e-16 -4.7721e-16)
(20 -5.01429e-16 -6.96688e-16)
(20 2.07894e-16 -9.37928e-16)
(20 -7.89749e-16 -1.78681e-16)
(20 -1.76794e-15 7.00922e-16)
(20 -1.10118e-15 4.9303e-16)
(20 -2.78754e-16 8.45406e-17)
(20 1.5855e-16 -5.50196e-16)
(20 9.1811e-16 -3.66093e-16)
(20 3.79365e-16 4.60135e-16)
(20 9.28608e-16 4.55235e-16)
(20 5.53404e-16 1.60736e-16)
(20 2.1889e-16 -1.02993e-16)
(20 1.5933e-16 -1.1003e-16)
(20 -7.54096e-16 1.85277e-16)
(20 -1.45679e-15 -2.12887e-16)
(20 -7.35763e-16 -4.92603e-16)
(20 8.77696e-17 -3.40492e-16)
(20 -7.81421e-16 1.90638e-16)
(20 -1.08083e-15 1.07144e-16)
(20 1.42185e-16 3.13698e-16)
(20 -2.12656e-16 -2.74229e-16)
(20 -3.22623e-16 -3.06828e-16)
(20 -9.74793e-17 -2.5029e-16)
(20 8.29751e-16 3.71117e-16)
(20 8.91618e-16 -3.58363e-16)
(20 1.00313e-15 1.59099e-16)
(20 5.1708e-17 2.14348e-16)
(20 -3.72456e-16 -5.63042e-16)
(20 -5.77796e-16 -8.36744e-17)
(20 2.56684e-16 1.55101e-16)
(20 5.00076e-16 1.28315e-16)
(20 -1.60047e-15 -3.22905e-16)
(20 2.62923e-16 -1.7068e-16)
(20 -2.78646e-17 3.41436e-16)
(20 5.17202e-16 4.06641e-17)
(20 -1.75107e-16 -2.20332e-17)
(20 1.36256e-15 2.08241e-16)
(20 7.47867e-17 1.34203e-16)
(20 1.12586e-15 -4.51129e-17)
(20 -1.19228e-15 1.88409e-16)
(20 -2.0601e-16 3.39678e-16)
(20 -3.23204e-16 -1.72725e-16)
(20 2.24179e-16 2.45335e-16)
(20 -5.54971e-17 -2.1311e-16)
(20 -1.63703e-16 -1.31108e-16)
(20 -1.38756e-15 -2.03198e-16)
(20 -5.68669e-17 6.78237e-17)
(20 -4.06439e-16 6.68745e-17)
(20 -1.76002e-17 -4.16102e-16)
(20 9.03262e-16 -6.95247e-17)
(20 1.28459e-15 -1.0441e-16)
(20 1.22584e-15 9.18588e-17)
(20 2.29021e-16 3.35564e-16)
(20 -6.8398e-16 1.57388e-16)
(20 -1.07473e-16 -1.26576e-16)
(20 -3.02392e-16 2.65261e-16)
(20 5.65251e-16 4.6586e-16)
(20 -3.18891e-16 -4.92292e-16)
(20 3.96842e-16 -5.90592e-17)
(20 3.89555e-16 1.87807e-16)
(20 -1.46442e-15 -3.40517e-16)
(20 -1.78832e-15 -9.22262e-16)
(20 -1.15527e-15 8.47618e-17)
(20 4.59716e-16 6.42548e-16)
(20 9.16927e-16 1.26936e-16)
(20 -4.1813e-16 -2.48855e-16)
(20 -8.69372e-16 -6.28473e-16)
(20 -4.09895e-16 -6.59526e-16)
(20 -4.05669e-16 -4.59353e-17)
(20 3.39646e-16 2.84492e-16)
(20 5.91555e-16 1.66247e-16)
(20 4.12431e-16 2.21521e-16)
(20 8.50384e-16 5.28772e-16)
(20 4.11937e-16 3.08527e-16)
(20 -4.45277e-16 -8.33057e-17)
(20 -5.72403e-16 -6.88265e-16)
(20 -1.05395e-15 -3.5177e-16)
(20 -1.39215e-15 2.06941e-17)
(20 -1.4902e-15 2.37304e-16)
(20 3.05991e-16 5.34676e-16)
(20 -4.64301e-16 3.00727e-16)
(20 -6.78592e-16 -1.51282e-16)
(20 -6.98994e-16 -3.74174e-16)
(20 1.27386e-15 -8.87939e-17)
(20 1.12935e-15 -1.18144e-17)
(20 1.08933e-15 -6.49701e-17)
(20 1.58034e-16 -3.87747e-16)
(20 -8.89469e-16 -5.18717e-16)
(20 -1.81323e-15 2.34066e-16)
(20 -6.9447e-16 1.84991e-16)
(20 1.23864e-15 2.59462e-18)
(20 -1.46668e-17 6.57606e-16)
(20 -1.57745e-15 2.41098e-16)
(20 1.25982e-16 1.97677e-16)
(20 2.36215e-16 2.16732e-16)
(20 4.34665e-16 -3.19718e-16)
(20 -3.15149e-16 -3.02645e-16)
(20 1.15205e-15 1.87641e-16)
(20 -2.97287e-16 -1.15074e-16)
(20 2.70571e-16 1.22283e-16)
(20 7.44266e-17 -5.16444e-16)
(20 -2.1714e-17 -2.81565e-16)
(20 2.15772e-16 1.04199e-16)
(20 -3.68084e-16 -9.06783e-17)
(20 -8.48001e-16 1.62699e-16)
(20 -1.05206e-15 -4.50544e-18)
(20 -2.4134e-16 4.84734e-17)
(20 2.57189e-16 4.3383e-16)
(20 1.24129e-15 -2.86112e-16)
(20 8.57728e-16 3.25239e-17)
(20 7.17611e-16 2.9378e-16)
(20 1.09166e-15 -4.28423e-16)
(20 -2.20665e-16 -1.74065e-16)
(20 -8.27098e-16 3.69748e-16)
(20 -4.41056e-16 -1.00338e-16)
(20 -8.39016e-16 4.42366e-16)
(20 2.47084e-16 2.65075e-16)
(20 -6.78901e-16 1.88708e-16)
(20 -1.17445e-16 -6.79945e-17)
(20 3.10098e-16 -4.41754e-16)
(20 -7.50651e-16 8.15615e-18)
(20 -9.66683e-16 -5.67194e-16)
(20 -1.62501e-16 6.3488e-16)
(20 9.32407e-16 5.05856e-16)
(20 9.28962e-16 -1.16825e-16)
(20 -1.68263e-16 -6.4104e-17)
(20 -8.70273e-16 -1.59898e-16)
(20 -1.59418e-15 -3.59912e-16)
(20 -4.82776e-16 1.89528e-16)
(20 7.71232e-16 1.24047e-16)
(20 6.57698e-16 1.95246e-16)
(20 1.84459e-16 1.64695e-16)
(20 9.10865e-16 1.93297e-16)
(20 7.26601e-16 -1.15513e-17)
(20 -3.20491e-17 9.53573e-17)
(20 -4.8415e-16 -4.79102e-16)
(20 -1.55125e-15 1.26086e-16)
(20 -1.73018e-15 2.11788e-16)
(20 -8.39461e-16 9.13971e-17)
(20 5.42234e-16 1.91622e-16)
(20 -2.64359e-16 4.63395e-16)
(20 -2.98187e-16 -2.5176e-16)
(20 -4.71211e-16 3.26137e-16)
(20 5.34913e-16 -4.85863e-16)
(20 1.98627e-17 -3.84709e-16)
(20 7.70959e-16 -3.02676e-16)
(20 1.00308e-16 -4.50451e-16)
(20 -1.09743e-15 5.24952e-17)
(20 -1.20764e-15 7.25449e-16)
(20 -9.57155e-16 1.22827e-16)
(20 1.01644e-15 -2.45408e-16)
(20 7.75066e-16 -2.41821e-16)
(20 -9.20256e-16 -3.83805e-16)
(20 2.60951e-16 1.32392e-16)
(20 -8.20803e-16 5.1645e-16)
(20 8.05668e-17 4.65609e-17)
(20 1.04519e-15 1.10626e-16)
(20 -1.44786e-16 1.81039e-16)
(20 3.57583e-16 -6.36554e-17)
(20 2.15939e-16 -1.78768e-16)
(20 -2.2119e-16 -4.09404e-16)
(20 -2.33352e-16 2.20818e-16)
(20 -1.20181e-15 4.03866e-16)
(20 -3.16347e-16 5.85919e-16)
(20 -6.92697e-16 2.65137e-16)
(20 3.57003e-17 -1.83717e-16)
(20 -2.87427e-16 -1.79116e-16)
(20 1.39047e-15 2.75789e-16)
(20 1.09313e-15 -4.97157e-16)
(20 1.0727e-15 1.71229e-17)
(20 7.16869e-16 -7.71543e-17)
(20 5.56891e-16 -2.47028e-16)
(20 -5.17816e-16 1.23076e-16)
(20 -7.06901e-16 2.06337e-16)
(20 -1.26326e-15 -2.54551e-16)
(20 -3.3959e-16 9.30814e-16)
(20 -1.89925e-16 -8.2159e-17)
(20 -1.44231e-16 1.62412e-16)
(20 -1.41511e-15 7.59905e-17)
(20 -1.08645e-15 -4.33959e-16)
(20 1.04538e-15 1.8288e-16)
(20 7.47628e-16 -4.97156e-16)
(20 9.19829e-17 1.75706e-17)
(20 1.1041e-16 1.97219e-16)
(20 -5.2145e-16 -3.47176e-17)
(20 -4.95536e-16 1.3608e-16)
(20 -5.67547e-16 -3.45603e-16)
(20 -1.09634e-15 -4.22692e-16)
(20 7.10274e-16 2.54302e-16)
(20 8.85061e-16 2.32544e-16)
(20 2.6068e-16 -4.69282e-17)
(20 2.62149e-16 -1.21664e-18)
(20 8.20276e-16 -2.71661e-16)
(20 8.85752e-16 -4.34361e-17)
(20 -2.43801e-16 5.81165e-17)
(20 -1.14383e-15 -4.31682e-16)
(20 -5.02139e-17 5.28204e-16)
(20 -2.82403e-16 2.1175e-16)
(20 -5.5835e-16 -2.08793e-16)
(20 1.22989e-16 5.78674e-16)
(20 -4.0066e-16 1.40022e-16)
(20 3.33027e-16 -1.09763e-16)
(20 2.68065e-16 -1.03629e-17)
(20 -1.12555e-15 -4.98315e-16)
(20 -9.0303e-16 -8.63547e-17)
(20 7.84589e-17 -2.6559e-16)
(20 -3.34175e-17 -3.89189e-16)
(20 -3.13169e-16 2.67006e-16)
(20 1.49692e-16 3.67745e-16)
(20 -6.12989e-16 8.55617e-17)
(20 1.8322e-16 -6.32712e-16)
(20 -6.41353e-17 7.03299e-17)
(20 -2.91448e-16 -4.06761e-16)
(20 -1.04643e-17 -2.19831e-16)
(20 -8.23964e-16 3.61439e-16)
(20 -8.68964e-17 -2.95508e-16)
(20 1.54639e-15 -1.75034e-16)
(20 1.3407e-15 5.24566e-16)
(20 1.85875e-16 -3.85947e-16)
(20 1.69933e-16 -3.62211e-16)
(20 -1.06638e-16 -4.21769e-16)
(20 1.67562e-17 -4.31344e-17)
(20 -8.39935e-16 6.90866e-16)
(20 2.29304e-17 2.18454e-16)
(20 -2.7562e-16 1.79464e-16)
(20 8.96163e-16 1.66152e-17)
(20 1.34155e-16 -1.69378e-16)
(20 4.68258e-16 -1.25007e-17)
(20 -5.70713e-16 -4.41137e-16)
(20 -3.63546e-17 -3.23375e-16)
(20 3.37312e-16 1.40037e-16)
(20 4.67208e-16 1.25186e-16)
(20 9.25109e-16 1.24202e-16)
(20 8.23617e-16 4.66866e-16)
(20 -1.44899e-15 2.05698e-16)
(20 -4.20231e-16 3.24556e-16)
(20 -1.0173e-15 5.05938e-16)
(20 -1.11008e-15 1.88332e-16)
(20 -1.44704e-15 2.92948e-16)
(20 -2.34679e-16 -2.10466e-16)
(20 1.87628e-15 -7.89571e-17)
(20 7.60002e-16 -1.17868e-16)
(20 -9.51721e-16 -2.11117e-16)
(20 -1.0334e-15 5.1953e-17)
(20 -4.87863e-16 -1.23209e-16)
(20 6.17563e-16 2.41029e-16)
(20 -3.07744e-16 -1.75545e-16)
(20 -8.08737e-16 -2.33111e-16)
(20 5.21891e-16 1.55863e-18)
(20 -6.46804e-17 1.87063e-16)
(20 2.69361e-16 3.95437e-16)
(20 6.87861e-16 1.91583e-16)
(20 6.41202e-16 -4.42661e-16)
(20 7.62176e-16 -3.7513e-16)
(20 -9.75543e-17 2.6936e-17)
(20 -1.13791e-15 -2.03799e-16)
(20 4.21003e-17 -3.69621e-16)
(20 1.09664e-16 -1.49773e-16)
(20 -7.85185e-16 2.1153e-16)
(20 5.82322e-16 3.90695e-16)
(20 2.67807e-17 3.33559e-16)
(20 1.61144e-16 4.34586e-17)
(20 -3.48e-16 -1.19656e-16)
(20 -1.41417e-15 -3.32901e-16)
(20 -5.939e-16 -3.58014e-16)
(20 -7.81776e-16 -2.00947e-16)
(20 -5.04003e-17 4.13683e-16)
(20 -8.37493e-17 2.35134e-16)
(20 1.46618e-16 -7.18365e-18)
(20 -2.43845e-16 -5.56108e-18)
(20 -8.10481e-16 -7.341e-16)
(20 -4.3437e-16 -5.10086e-17)
(20 8.33121e-16 -2.78061e-16)
(20 8.50938e-16 -1.16441e-16)
(20 6.33051e-16 -3.83012e-16)
(20 -1.05249e-15 3.1481e-16)
(20 5.99929e-16 -3.95319e-17)
(20 -8.44382e-16 2.64907e-16)
(20 2.0481e-16 2.91771e-16)
(20 3.07649e-16 -1.12391e-16)
(20 -9.3488e-16 -3.24013e-17)
(20 -9.05667e-17 5.72743e-16)
(20 2.73173e-16 2.8702e-16)
(20 -5.09816e-16 3.71279e-16)
(20 -6.30363e-16 2.59037e-16)
(20 6.46274e-16 -3.96345e-16)
(20 6.45929e-17 -2.23325e-17)
(20 -2.38566e-16 -1.49012e-16)
(20 -3.10007e-16 -4.41758e-16)
(20 -6.77229e-17 2.72494e-16)
(20 7.20134e-16 -1.78397e-16)
(20 1.01879e-16 -1.95297e-16)
(20 -1.05154e-16 -4.75398e-16)
(20 1.02504e-15 -2.19177e-16)
(20 2.75681e-16 7.06888e-16)
(20 3.80899e-16 7.07959e-16)
(20 -6.19613e-16 7.32072e-16)
(20 -7.72918e-16 2.99093e-16)
(20 -7.47051e-16 2.37045e-16)
(20 -4.91079e-17 -2.19554e-16)
(20 1.03626e-15 -3.70994e-16)
(20 -2.65878e-16 -7.61088e-17)
(20 -1.13991e-15 7.03899e-17)
(20 -1.10812e-15 7.8297e-16)
(20 -1.02165e-15 -3.83913e-17)
(20 -1.53691e-16 -7.75578e-16)
(20 -4.41465e-16 -6.63128e-16)
(20 -4.54561e-16 1.52715e-16)
(20 5.47744e-17 1.00564e-16)
(20 -3.28092e-16 7.15044e-17)
(20 2.05324e-16 -3.32613e-17)
(20 5.01864e-16 -9.09429e-18)
(20 5.46754e-16 -2.46503e-16)
(20 4.75268e-16 2.77543e-17)
(20 6.19818e-16 -2.63892e-17)
(20 -1.49205e-16 -5.31163e-16)
(20 -1.4908e-15 -3.20897e-16)
(20 -1.00285e-15 -1.07131e-16)
(20 -6.66263e-16 5.0379e-17)
(20 1.04963e-15 5.1336e-16)
(20 6.17271e-16 3.96196e-16)
(20 -1.59769e-16 -1.70344e-16)
(20 1.36297e-16 1.80203e-16)
(20 -1.16234e-16 -1.06859e-16)
(20 -5.04445e-16 -4.91047e-16)
(20 -5.98779e-16 -4.37186e-16)
(20 7.98514e-17 4.46673e-16)
(20 5.70612e-17 4.63809e-17)
(20 -1.98398e-16 -1.99414e-17)
(20 -5.87584e-16 2.90207e-16)
(20 -7.19976e-16 -4.79787e-16)
(20 -1.68722e-16 -2.04141e-16)
(20 8.04432e-16 -3.58491e-16)
(20 8.45676e-16 3.04813e-16)
(20 8.12313e-16 4.5528e-17)
(20 2.77609e-16 1.95739e-16)
(20 5.2959e-17 -3.43199e-17)
(20 7.20005e-16 2.79195e-16)
(20 1.42156e-15 -4.94071e-16)
(20 6.39522e-16 4.09492e-16)
(20 -1.25339e-15 1.58426e-16)
(20 7.33848e-18 -1.24256e-16)
(20 7.35616e-16 2.37172e-16)
(20 2.16437e-16 8.04228e-16)
(20 3.11941e-16 6.37914e-16)
(20 5.52603e-18 1.17959e-16)
(20 2.21922e-16 1.23115e-16)
(20 -2.87978e-16 -2.41598e-16)
(20 2.04703e-16 -3.25195e-16)
(20 3.1017e-16 1.60848e-16)
(20 1.06944e-15 -6.24172e-16)
(20 -4.56527e-16 -1.69658e-16)
(20 -1.14905e-15 1.27635e-16)
(20 -7.63296e-17 1.60002e-16)
(20 9.72264e-16 2.52704e-16)
(20 4.44338e-16 1.43708e-16)
(20 7.87271e-16 2.57677e-16)
(20 -5.37723e-16 5.55207e-16)
(20 -2.36679e-16 5.10416e-16)
(20 -2.69569e-16 -1.71425e-16)
(20 1.86393e-16 1.88132e-17)
(20 -2.82702e-16 3.02786e-16)
(20 -1.55629e-16 3.99407e-16)
(20 9.85875e-17 5.96213e-16)
(20 -1.21592e-15 1.55641e-17)
(20 -1.65621e-15 -1.57526e-16)
(20 -1.40741e-15 -6.23725e-16)
(20 -2.69202e-16 -2.26216e-16)
(20 2.13837e-16 -1.67583e-16)
(20 2.2957e-16 6.22364e-17)
(20 2.51888e-16 4.8808e-16)
(20 2.94122e-16 1.64473e-16)
(20 3.70274e-16 -3.73796e-16)
(20 2.51545e-17 -4.74507e-17)
(20 -3.81288e-16 -1.63535e-16)
(20 1.16319e-16 -4.39061e-16)
(20 -2.86999e-16 1.51178e-16)
(20 -6.5075e-16 1.93716e-16)
(20 -1.11017e-15 8.24654e-17)
(20 7.13957e-16 2.60615e-17)
(20 1.5721e-15 1.49916e-17)
(20 -1.25416e-16 -5.63696e-16)
(20 8.9166e-16 -1.67875e-16)
(20 2.5548e-16 -3.86645e-16)
(20 -8.93203e-16 2.84956e-16)
(20 -4.44605e-16 1.42744e-16)
(20 8.91655e-17 2.38717e-16)
(20 -9.71562e-16 2.09666e-16)
(20 -3.76226e-16 -1.60115e-16)
(20 -6.25582e-16 3.83821e-16)
(20 -1.11927e-16 -8.25777e-16)
(20 -6.34026e-16 -7.80503e-16)
(20 3.98749e-16 -4.2487e-16)
(20 -1.00149e-15 5.70402e-16)
(20 2.86426e-16 3.85444e-16)
(20 -3.34327e-16 1.38616e-16)
(20 6.81903e-16 -9.42313e-16)
(20 -8.10684e-17 -9.0282e-16)
(20 7.24501e-16 2.87145e-17)
(20 -9.48782e-16 1.95181e-16)
(20 -2.04811e-16 -1.09745e-16)
(20 -2.25703e-16 -3.41653e-16)
(20 2.35056e-16 1.26825e-16)
(20 1.03806e-15 3.95646e-16)
(20 9.80095e-16 1.99694e-16)
(20 4.20329e-16 2.62978e-16)
(20 5.98907e-17 -3.44217e-16)
(20 7.28529e-17 1.65469e-16)
(20 5.2467e-16 -7.36806e-17)
(20 3.32408e-16 1.83764e-16)
(20 4.54024e-16 -5.20507e-16)
(20 3.49974e-16 6.52351e-18)
(20 -9.91805e-16 6.85992e-17)
(20 -3.02014e-16 6.44876e-17)
(20 8.21715e-16 -5.02049e-17)
(20 2.67832e-16 6.1285e-17)
(20 4.82197e-16 -1.93968e-17)
(20 -5.81812e-17 7.33223e-16)
(20 4.4147e-18 2.90601e-16)
(20 -3.17094e-16 -5.67788e-17)
(20 3.49252e-16 3.41788e-16)
(20 4.0112e-16 1.82633e-16)
(20 1.63945e-16 1.40954e-16)
(20 1.72195e-16 7.35862e-17)
(20 -3.56956e-16 9.41439e-17)
(20 -9.6598e-16 -3.4347e-17)
(20 -8.63696e-16 -2.39005e-16)
(20 -6.0554e-16 -1.51433e-16)
(20 -2.26167e-16 -4.16091e-16)
(20 3.72203e-16 -7.33623e-17)
(20 2.46887e-16 3.16593e-16)
(20 1.55114e-16 -4.58574e-17)
(20 -7.40816e-18 -2.30599e-17)
(20 -5.26699e-16 -1.10025e-16)
(20 -8.12659e-16 -1.34067e-16)
(20 -1.56339e-16 -1.16129e-16)
(20 1.69171e-16 3.10686e-16)
(20 -2.75086e-16 2.18968e-16)
(20 -1.25055e-15 2.21083e-16)
(20 7.37452e-16 2.56387e-16)
(20 1.67079e-15 8.49065e-17)
(20 -7.59773e-16 -7.17235e-16)
(20 -3.925e-16 -4.21141e-16)
(20 -4.66662e-16 -1.343e-16)
(20 -5.23887e-16 6.35585e-17)
(20 -1.35127e-16 5.61768e-16)
(20 -2.96699e-17 1.76954e-16)
(20 -6.69382e-16 5.38243e-16)
(20 -6.24547e-16 -1.32319e-16)
(20 1.69805e-16 2.35003e-16)
(20 -1.15785e-16 -4.08542e-16)
(20 -2.2454e-16 -6.08425e-16)
(20 4.03594e-16 -2.09434e-16)
(20 -8.10664e-16 6.99188e-16)
(20 -6.24347e-16 6.62217e-16)
(20 -6.31825e-16 3.37864e-16)
(20 -9.94799e-16 -1.03889e-15)
(20 -9.894e-16 -6.99492e-16)
(20 3.03922e-16 2.17872e-16)
(20 3.4995e-16 7.15671e-16)
(20 3.48293e-16 -1.39953e-16)
(20 1.92529e-16 -7.82428e-17)
(20 3.93619e-16 2.13822e-16)
(20 1.34315e-15 3.98435e-16)
(20 4.35796e-16 9.83582e-17)
(20 7.50079e-17 9.64655e-17)
(20 -8.59289e-17 -5.77869e-16)
(20 4.74366e-16 -5.13523e-16)
(20 8.80049e-16 -2.42915e-16)
(20 6.30217e-16 6.34375e-17)
(20 1.30567e-15 3.37979e-16)
(20 6.46063e-16 -4.31698e-17)
(20 -1.19555e-15 6.55912e-16)
(20 -4.65555e-16 -1.9292e-16)
(20 4.34776e-16 -2.50231e-16)
(20 6.95878e-16 1.42709e-16)
(20 -3.17048e-16 2.04731e-16)
(20 -1.29231e-16 2.39433e-16)
(20 -3.8813e-16 9.21843e-17)
(20 -4.0408e-16 -1.54169e-16)
(20 9.29493e-16 -1.39649e-16)
(20 8.44538e-16 1.51405e-16)
(20 4.86545e-17 2.66404e-16)
(20 -8.96277e-16 -3.2915e-17)
(20 -5.42845e-16 -1.36786e-16)
(20 -1.00131e-15 -1.63017e-16)
(20 -9.49884e-16 -2.271e-16)
(20 -1.11013e-16 -1.18047e-16)
(20 5.62019e-16 1.80679e-16)
(20 8.91843e-16 1.2454e-16)
(20 -4.1802e-17 2.86463e-16)
(20 2.5859e-16 -1.92008e-17)
(20 1.28802e-16 -2.11215e-16)
(20 -4.69819e-16 -1.11997e-16)
(20 5.40352e-17 -1.20696e-16)
(20 -3.16714e-16 -2.91449e-16)
(20 -3.86179e-16 -9.87209e-17)
(20 -6.3359e-16 -2.3281e-16)
(20 -1.07677e-15 3.66682e-16)
(20 3.8182e-16 7.67173e-17)
(20 7.35652e-16 -8.79844e-17)
(20 -1.0316e-16 -5.50333e-17)
(20 2.138e-16 2.57095e-16)
(20 2.40981e-16 -1.28486e-16)
(20 -4.57674e-16 1.4738e-16)
(20 4.10774e-16 3.13062e-16)
(20 -1.9151e-16 -6.06383e-17)
(20 -1.10131e-15 1.59996e-16)
(20 -1.33557e-15 -1.17587e-16)
(20 -3.24456e-17 2.49876e-16)
(20 -4.51141e-16 -2.13859e-17)
(20 6.73801e-16 -2.54767e-16)
(20 4.25228e-16 -6.87085e-16)
(20 5.75268e-17 2.60252e-16)
(20 -2.40479e-16 7.49676e-16)
(20 -5.63616e-16 -1.45305e-16)
(20 -3.71779e-16 -3.39438e-16)
(20 -1.14805e-15 -2.00487e-16)
(20 4.20364e-16 2.98007e-16)
(20 8.35762e-16 2.43726e-16)
(20 1.3615e-16 -6.00436e-16)
(20 9.06625e-16 -4.5288e-16)
(20 1.35906e-15 -1.49341e-16)