/*--------------------------------*- C++ -*----------------------------------*\
| =========                 |                                                 |
| \\      /  F ield         | OpenFOAM: The Open Source CFD Toolbox           |
|  \\    /   O peration     | Version:  2312                                  |
|   \\  /    A nd           | Website:  www.openfoam.com                      |
|    \\/     M anipulation  |                                                 |
\*---------------------------------------------------------------------------*/
FoamFile
{
    version     2.0;
    format      ascii;
    arch        "LSB;label=32;scalar=64";
    class       volScalarField;
    location    "400";
    object      k;
}
// * * * * * * * * * * * * * * * * * * * * * * * * * * * * * * * * * * * * * //

dimensions      [0 2 -2 0 0 0 0];

internalField   nonuniform List<scalar> 
209453
(
0.0158047589087161
0.0168270866886237
0.0223831394929924
0.0212621010562939
0.016557363404998
0.0164654589034216
0.0208299624522868
0.0201788720743405
0.0197706125641528
0.0157907157231889
0.0160114318867503
0.0155311709983798
0.0153833871157039
0.0154604131433635
0.0155982460589747
0.016172265084329
0.0211262113570505
0.0208376295778018
0.0158861139700956
0.0159750308946788
0.0222450604969617
0.0223610508291977
0.0162943323733616
0.0156832581088991
0.0155351610575397
0.0156202192522091
0.0157722156798872
0.0165428049120852
0.023647181277524
0.0235493721194737
0.01617724102961
0.0167393741815507
0.0247213833091367
0.0249206383432216
0.017170302099943
0.0173115089612176
0.0253211633164435
0.0238006475881055
0.0169741897804973
0.0171466425851238
0.0234349229855036
0.0226893707429586
0.0171521649041869
0.0169903451577818
0.0210299803120582
0.0196510952600371
0.0165794988817637
0.0160329561315672
0.0186255322048484
0.0171719268396667
0.0155530633484141
0.0152644633409384
0.016334725892619
0.015751218676374
0.0153141786950247
0.0150262949602755
0.0150622855738362
0.0150494539542631
0.0150148244899792
0.0150111286901275
0.0150081594868289
0.0150231943595311
0.0150383792033231
0.0150745478313889
0.0150476923528796
0.0152259527921572
0.0163415768782691
0.0163916084410237
0.0152584544174375
0.0150607453755111
0.0150872164147443
0.0156036962064638
0.0157018212490202
0.0152726564800775
0.0152904935634105
0.0150252625795011
0.0150264926987549
0.0155448859016443
0.0171624377898871
0.0169934068982514
0.015424358998075
0.0151092664360462
0.0151671269745061
0.0151829938013856
0.0151177981880684
0.0154491877452377
0.0156441080897511
0.0156660866459643
0.0154657925002934
0.0153238178075409
0.0154462591909536
0.0152039479807024
0.0151313781850195
0.0150871742277661
0.0151274708316703
0.0152115805132645
0.0151446581312598
0.0152011707642605
0.0152674592522779
0.0153160030290055
0.0152606658218144
0.0153293965040539
0.0153916141378501
0.0155301714243985
0.0154187528204559
0.0157806513098303
0.0160062646680949
0.0163357658918547
0.0161723588059711
0.0173926816679706
0.0262358050021902
0.0263033780398722
0.0176862138368398
0.0178008222581698
0.0267312445418435
0.0258509339737677
0.0174972733035166
0.0177585125929223
0.0267369569816727
0.0276190347047564
0.0177831268938794
0.0178461396232419
0.0273452995855183
0.0278072743334758
0.017739376182976
0.0177965124365855
0.0280183762670472
0.0307065414109812
0.0193224928741899
0.0188959048265208
0.0297797610297734
0.0290374109653892
0.0183296745973514
0.018541316906024
0.0307755931128644
0.0299245237189926
0.0178345347431631
0.0174073518220813
0.0269025357711413
0.0246796078915076
0.0172493288334644
0.0168040093725268
0.0238090860602837
0.0221856536424089
0.0166956984915369
0.0165816814421054
0.0207670274676498
0.0195442500936254
0.0163203797310763
0.0162470914638574
0.0194023181780238
0.0184879046604654
0.0160177939349791
0.0155545740388268
0.0172471364289242
0.0164286428387362
0.0152819535718876
0.0150548263089884
0.0150201010883756
0.0153218679150012
0.0158280081263966
0.0158364254856252
0.0152869894887422
0.0150116273988845
0.0150342951927763
0.0150180285698223
0.0150078750787748
0.015013266030961
0.0150342640340299
0.0150387241790957
0.0151489675455996
0.0150953652655587
0.015187109679829
0.0164385891304621
0.0164407586846124
0.0151168516871534
0.0150164174516873
0.0150045196957932
0.0152883782798595
0.0158302088290032
0.0159096328872433
0.0153437150585258
0.0150013321156653
0.0150126221196745
0.0150085685907682
0.0150047225535855
0.0150025633598285
0.0150050025421331
0.0150085916173336
0.0150037941704779
0.0150053382619388
0.0150157619667668
0.0150105741003353
0.0150050090865553
0.0150033150342167
0.0150043848320102
0.0150016690068611
0.0150013611391541
0.0150032380865455
0.0150043779730844
0.0150087847762037
0.0150060978829561
0.0150074575417544
0.0150168288730094
0.0150631063031215
0.0150327036627951
0.0150198081931095
0.0150293331946421
0.0150757565466584
0.0150561311074123
0.0150821710750401
0.015099861349612
0.0151327111664781
0.015117849685631
0.0151572125761809
0.0151924004466196
0.0152354090060293
0.0151997804883475
0.0152431445063178
0.0152812324180296
0.0153341609898259
0.0152910038136198
0.0153447668304357
0.0153873531140709
0.0156685393287157
0.0155513162933845
0.015631918965682
0.0157304656817878
0.016382339625392
0.0162305247293568
0.016231296291543
0.0163745638500423
0.0176263246410773
0.0177203067998398
0.0180758928488663
0.0177936316214489
0.017734274788017
0.0179623896690456
0.0192951380598872
0.032195056672749
0.0312305283049957
0.0189188204887269
0.0184018822888988
0.0308700137788562
0.0323822765303253
0.0185810700192455
0.0202463317127161
0.0344496767445631
0.034225820321818
0.019646238636897
0.0184358360257402
0.0310402195751875
0.0280347520600679
0.0173051483963236
0.016941930014664
0.0256637796990381
0.0253274075230165
0.0164364928567714
0.0163862680375443
0.0236291345720429
0.0221420565452829
0.016373906191313
0.016375249409934
0.0207218337055206
0.0211355879503123
0.0164336784822534
0.0163604624403533
0.019495915774152
0.019271615970437
0.0160934795272596
0.015761509304069
0.0184038300135538
0.0172328590738763
0.0154241828563655
0.0152511891015811
0.0172105391141451
0.0174151675759039
0.0153793619343557
0.0151596818005919
0.0165732297214928
0.0166609576043911
0.0151422759419934
0.0150112413420347
0.0150038397929177
0.015373882955143
0.0159613311654963
0.0159022995016006
0.0153415415479286
0.0150023043805469
0.0150088636441303
0.0150059556521089
0.015002627777798
0.0150025910456158
0.0150062304144043
0.0150063829994462
0.0150024551509872
0.0150024384107735
0.0150064998826228
0.0150067846913373
0.0150017066274839
0.0150009343606614
0.0150008412128336
0.0150046311428662
0.015005123060278
0.0150150396023566
0.0150127359395521
0.0150306403904624
0.0150398312862402
0.0150868430316832
0.0150688295432192
0.0150939089454272
0.0151068701298233
0.0151362733699066
0.0151272399714542
0.0151144023571649
0.0151249379211744
0.0151585401015208
0.0151487057240209
0.0151546111766047
0.0151692807428168
0.0152068525165406
0.0151912287408186
0.0152285548241589
0.015245205649522
0.0152820513303492
0.0152657472651767
0.0152855719210333
0.0153023146412745
0.0154080527575165
0.0153665506291478
0.0153746187491438
0.0154173451215836
0.0156997715553754
0.0155879309796099
0.0156270946781555
0.0157329828021385
0.0157850489582076
0.0156969403154807
0.0162992436734068
0.0164426574536017
0.0164320920637988
0.0162892695363123
0.0164814955127909
0.0165956714558992
0.0178461694260545
0.0181005242999611
0.0194841420799113
0.0355365417537063
0.0335350470664413
0.0191780372107349
0.0199693167221816
0.0207793174442356
0.0382799538275046
0.035588466131081
0.0340219023947271
0.0190972989562204
0.0197536936460018
0.0360618363042495
0.0386521941916677
0.0429924486918978
0.0215389911044898
0.020409700391102
0.0193039632298972
0.0188131865298217
0.0188466291539451
0.0193107638816395
0.020499550571878
0.0214638474521997
0.0457299264407115
0.0410308356376278
0.0432378325214232
0.0205686178403668
0.0207444021251744
0.0398056714367484
0.0397205184588148
0.020782767154211
0.0207113195291867
0.0366108680730239
0.0204487550090116
0.0180836890482125
0.0204678002387638
0.0403085288728952
0.0351356535784218
0.0201586730556779
0.0195730475330944
0.0326994802447915
0.0295548216364407
0.0175421236176914
0.0166035124991533
0.0272931649589795
0.028070733994236
0.0165684521121826
0.0164848585529992
0.0260430319367372
0.0242806207852904
0.0164565650246792
0.0164497625782089
0.0227562731487968
0.0234887517081474
0.0165525554244902
0.0165793795548477
0.0213924169006022
0.0205309951310311
0.0164121344547076
0.0160192086089129
0.0197791430411348
0.018977786522943
0.0158645903803099
0.0158740934190661
0.0196710326914539
0.0181592952648034
0.0154652013907817
0.0156208480972453
0.0185622834136509
0.018679942100333
0.0154690616099433
0.0153448283043567
0.0175316017710973
0.0173243584416004
0.015140139996861
0.0150692135798831
0.0165555865199195
0.0165525868100361
0.0150711756682275
0.0150131948425513
0.0158998273630169
0.0153411549948724
0.0150033594108631
0.0150038539618674
0.0150084409063686
0.0150071952017108
0.0150026274542474
0.0150023932529172
0.015007576817014
0.0150079362802967
0.0150022052329944
0.0150016505868794
0.0150125930665119
0.0150063515339311
0.0150048880849136
0.0150002314312475
0.0150000499040328
0.0150057524548979
0.0150043065156284
0.0150224360067455
0.0150379802947528
0.0150785590886427
0.0150527620730263
0.0150158925288091
0.0150225745197945
0.0150768141528711
0.015047893245727
0.0151019852556747
0.0151408015103167
0.0151668525853936
0.0151326274789585
0.0151733685000743
0.0152059166616944
0.0151435020530593
0.0151311804527945
0.0151670790953484
0.0151790167080626
0.0151696703347694
0.0151613367240917
0.0151953344674871
0.0152038646864069
0.0151929814058967
0.01518292229731
0.0152174667805562
0.0152279834376896
0.0152621700430581
0.0152514221231706
0.0152700182095719
0.0152817808184904
0.0153013024002926
0.0152843695924765
0.0153041400256279
0.015322470668945
0.0153233808221363
0.0153052089871609
0.0153891930967663
0.0154294945730049
0.015440279638166
0.0153996784707248
0.0154228963313278
0.0154639971857951
0.0157594720275697
0.0156600631159477
0.0157802168238216
0.0158419025241463
0.0165296294127817
0.0163886622699532
0.0166159224177363
0.016703930026096
0.0172110437550757
0.0171278200207842
0.0186185973131879
0.018351257449858
0.0171546101784301
0.0168529976930434
0.0163399128505895
0.0158364435027508
0.0157260403613339
0.0157297482168408
0.0156759381304834
0.0156658041333038
0.0156313411644872
0.0157454566952387
0.0157308684856873
0.0162982552662104
0.0168633159939034
0.0268454745641768
0.0238087720432493
0.0164505771210737
0.0158107368376331
0.0218197530794413
0.0201160475709205
0.0156096612537714
0.0153211279127759
0.0193234445888235
0.0182406485138326
0.0152209980897994
0.0152248386646063
0.018224775338115
0.0173169662421373
0.0151433667458246
0.015358705661096
0.0175243776668062
0.0166620169955112
0.01514677985903
0.0150111731634881
0.0150055259430498
0.0153728569490917
0.0159609599953647
0.0159108072496181
0.0150130647250611
0.0150018352949853
0.0153425003013164
0.0152870848719843
0.0158055490011355
0.0150152723014064
0.0150023385741205
0.0150034152132906
0.0150085721501076
0.0150069290210453
0.0150030504816908
0.0150043770783069
0.0150095718229466
0.0150128087541121
0.0150588489434987
0.0150552948029936
0.0151641455662104
0.016577032242358
0.016401132965757
0.0150995078650033
0.0151581549247471
0.0163851301202341
0.0158073935014155
0.0152852768372113
0.0150065802830731
0.0150281578139219
0.01501471071399
0.0150046530155276
0.0150097120991422
0.0150328953893469
0.0150441141564181
0.015009125137686
0.0150270164858207
0.0153128721989477
0.0157399412501133
0.015062548926548
0.0152805975583737
0.0163156933834179
0.0162936766907728
0.0162772451469157
0.0151432637950074
0.0152525675519359
0.0150607317644425
0.0150440737468694
0.0150190807631185
0.0150270030303496
0.0152725217337427
0.0152904668750181
0.0155948255078564
0.0156530523178975
0.0155925400124782
0.0154124552452602
0.0168737364000328
0.0169833527143316
0.0171594948783414
0.0155444333798765
0.015981492786585
0.0185688901818508
0.0182579749270674
0.0179215739744324
0.015700182033471
0.01584162753848
0.015636232343038
0.0154203386309281
0.015131737739549
0.0152000165924692
0.0152267189488723
0.0151504544460381
0.0153082083584543
0.0154450266696158
0.0156580873674111
0.0154366277255337
0.0156965404812868
0.0159197191851645
0.0189690911200962
0.0186179248194896
0.0195677912161735
0.0157363726693941
0.0159895109765336
0.0199253112185802
0.0205805658611647
0.0163908667762903
0.016470920501328
0.0209942565366014
0.0208359935169128
0.0205975610408458
0.0158017781371312
0.0161212608544741
0.01556712357604
0.0154198547769395
0.0152215354012016
0.0152769709734716
0.0153264614461698
0.0152745325718861
0.0152149146295919
0.0152479806173423
0.0152903597443683
0.0152558873830042
0.0152024641624068
0.0152147444963144
0.0152510009108536
0.0152385374108462
0.0152298764868051
0.0152389209227018
0.015273635751768
0.015263993351189
0.0152828637097368
0.0152937334079508
0.0152817027940387
0.015269897365445
0.0152897368941019
0.0153035443641416
0.0153033514144394
0.0152896392818875
0.0153098040568514
0.0153265245482133
0.0153449377347479
0.0153242279207755
0.0153251839421388
0.01534578077703
0.0154507172641685
0.0154108509809057
0.0154228242902439
0.0154582133464414
0.0154721854381506
0.0154385131690218
0.0154505969473838
0.015485029333162
0.0154857807637339
0.0154515381117779
0.0156800850453621
0.0157640937444031
0.0157886343957483
0.0157041893328612
0.0158107806202464
0.015867123759562
0.0158722689885454
0.0158330342939318
0.01591605434348
0.0158762545603701
0.0158498721876533
0.0157939177157499
0.0157902102131569
0.0158487585081219
0.015767841380647
0.0156776584405429
0.0156671972720917
0.0157563715396726
0.0154715255461565
0.0154350185838279
0.0154348700032212
0.0154712650595391
0.0154856937761042
0.015521743509966
0.0155382408802235
0.0155472293700238
0.0155470940874475
0.0155615481149562
0.015561814594194
0.0155635679748319
0.0155630953291978
0.0155716150946707
0.0155699172968314
0.0155868775918263
0.015609823693269
0.0156128009879181
0.015672770317565
0.0158128670874911
0.0159012785556591
0.0154447899369204
0.0154715252662502
0.0161892352048434
0.0237839096610541
0.0220991635532787
0.0159361086022363
0.0155759971482508
0.0205819969122171
0.0205525532295345
0.0157766483091258
0.0153605015571433
0.0192930308639327
0.0200037388897928
0.0156790250395658
0.0154757693678256
0.0186406540072906
0.0185121791008419
0.0155233397651213
0.0153748027364336
0.018043998298489
0.0180754023921849
0.0155748109517959
0.0153233765695341
0.0171242257476011
0.0172039125618801
0.0154687638605243
0.0157221239017919
0.0182098385470599
0.0199875081434924
0.0163432858436256
0.0161649519475041
0.0192466463693692
0.0195370457143155
0.0165618525482638
0.0165847012555558
0.0201895678791793
0.0214810867072607
0.0168786689816518
0.0167048312039192
0.0220793709674683
0.0220456302360395
0.0219985634964565
0.015865367984938
0.0162156848913586
0.0156388707834178
0.0154916319574215
0.0155890234266159
0.0157364950522814
0.015387949616595
0.0153339592676107
0.0154088732510815
0.0154714396642476
0.0153350395844992
0.0152995335957016
0.0153446856834679
0.0153776990314916
0.0152861551601935
0.015273953004128
0.0152932683981377
0.0153063863093248
0.0152937216218526
0.0152828545481065
0.0153032892848168
0.0153164141162888
0.0153162224859543
0.015303122360881
0.0153241927374857
0.0153407090287465
0.0153271545362086
0.0153102221143373
0.015321089341875
0.0153354571986885
0.0153482365032717
0.0153350316795157
0.0153344055602619
0.0153473518020128
0.0153472296611776
0.0153342678379715
0.0153482996897407
0.0153647760329827
0.0153652374143908
0.0153485584995312
0.0153494091222369
0.015365911406692
0.0153657811481388
0.0153492495941262
0.0154325530416132
0.0154655901731482
0.0154770896269051
0.0154461629408652
0.0154556578019304
0.0154876100501923
0.0155004694747267
0.015467783141863
0.0154692772947053
0.0155017460539145
0.0157738387916533
0.0156954005780641
0.015730986900902
0.0158117971027226
0.0158909904234404
0.0158354465679237
0.0159034710443381
0.0159270747779556
0.0162628446701986
0.0162735771439044
0.0163089998570638
0.0162992743886206
0.0167800716612331
0.0167013168697721
0.0172320617255489
0.017308371352609
0.018993323982349
0.0185900828206311
0.0208941639694098
0.0447534100798534
0.0408646213589069
0.0203553008413786
0.0204758153751283
0.042940562960149
0.0451872558585013
0.0204565378839756
0.020736687956577
0.0431061799222457
0.0436141908833876
0.020831304964459
0.0209082980489617
0.0487797897293446
0.0441349970576664
0.021533530352724
0.0223821416284269
0.0434354040929704
0.0379685552689848
0.0217088775832213
0.0214992506215846
0.0375317968794675
0.0350436037164494
0.0208237137155052
0.0203737390030656
0.0342784895534433
0.0366727317878965
0.0193433783353599
0.0180976449838015
0.0328641337855785
0.0303212429479246
0.0170772559554601
0.0168954548087054
0.0330954426596239
0.0301175996009343
0.0166745146308285
0.0166070755969892
0.0274748333392058
0.025285053858205
0.0165666814866429
0.0165725204898749
0.0242610209465268
0.0228042706885033
0.0165568607644842
0.016162766020088
0.0216934696844448
0.0205091401358394
0.0161126348498727
0.0160586633911209
0.0204442111037939
0.0159895044405506
0.0161028653249052
0.0161625335176131
0.0218308182582675
0.0227392965917564
0.0161459308245075
0.0160511721910779
0.020282115419476
0.0153286053531262
0.015129684970123
0.0151342314775677
0.0152867188493744
0.0159373218118867
0.0198891462986456
0.0191135004717166
0.0156806105472375
0.0160321530876695
0.0194298407210403
0.020412787148744
0.0164210448756915
0.0167965145070384
0.0211234587649057
0.0211290177740566
0.0166109295583868
0.0166570143560719
0.021715005000428
0.0224661944697692
0.0170420486959973
0.0170284499888095
0.0231020226821179
0.0234134168922452
0.0169004109181045
0.0162609279337036
0.015907201048473
0.0227992865031165
0.0232482615167959
0.0243615611421477
0.0239095699254508
0.0165016552948247
0.0169711418707465
0.015941071684466
0.0157491539393042
0.0161477807816907
0.0164221355802672
0.015584309389795
0.0155161020265713
0.0155452182485293
0.0156102118020369
0.015399346294844
0.0153665539454721
0.0153649708546974
0.0153968297390761
0.0153063953296913
0.0152931995144079
0.015314147068442
0.0153293812700089
0.0153290716480178
0.015314021789161
0.0153357340308119
0.0153540484441496
0.0153412501634151
0.0153246246827397
0.015336169818731
0.0153501663655808
0.0153636903263184
0.0153509834661069
0.0153501300713992
0.0153628044002313
0.0153629034827699
0.0153502599039322
0.0153353804433188
0.015348519074696
0.0153632117248563
0.0153506276410573
0.0153499450544396
0.0153626320908001
0.0153614934297687
0.0153491289464284
0.0153489769190997
0.0153613487269081
0.0153784387794439
0.0153628512119221
0.015363332082398
0.0153792418862127
0.0153797127021876
0.015363998235708
0.0153638581037947
0.0153795729330406
0.0153935871775763
0.0153776890901363
0.0154581897963281
0.0154886339198534
0.0155030192712171
0.0154710398401605
0.0154833057997756
0.0155161336763023
0.0155178675026129
0.0154853205768851
0.015708001785586
0.0157847295281528
0.0158350719408003
0.0157539593259658
0.0158599384481846
0.0159164974168308
0.0159586637243602
0.0159380101182558
0.0159746827021843
0.0159882050696655
0.0164771090300787
0.0164755802418593
0.0164977602223575
0.0164942470389977
0.0168582759112246
0.0167893103368051
0.0173288483710551
0.017397118702507
0.0188489753182126
0.0185919143582084
0.0207493909139362
0.047583501737631
0.0429656297720581
0.0203530287688764
0.0204145697558282
0.046323404702025
0.0518442298130627
0.0207811548955932
0.0186544397952612
0.0188756065091081
0.0189571797658168
0.0187480875171321
0.0208744617311482
0.0570209439305472
0.0502802823326222
0.0205231816630408
0.0207233936976173
0.0543015279880598
0.0493422872771257
0.0204866748620113
0.020930361220926
0.0479835776736868
0.053882877749243
0.0214116653145597
0.0211610042015727
0.0550532785375024
0.0504286166439347
0.0239137477390294
0.0251970576386549
0.0486234805960113
0.0415884429213143
0.0235712494452576
0.0233985772852175
0.0412627871996765
0.0384849140439679
0.0221713278558261
0.0204692477492351
0.0370722540644638
0.0432463556683673
0.0211463636755966
0.0197193754167854
0.0404662427252037
0.0449601938159551
0.0189812005723111
0.018338458467526
0.0404483356408328
0.0364614457393999
0.0173823469758898
0.0169641850327911
0.033934871165963
0.0310297542492948
0.0167979651729937
0.0166973113373814
0.0284667140425219
0.0261629087447355
0.0166161838275486
0.0162400599284362
0.0244411277198329
0.0229168999007489
0.0161923687929339
0.0162063097620269
0.023020222780429
0.0242597898062123
0.0164377097914704
0.0172911704237795
0.0257023304640678
0.0273713810596667
0.0175717447378251
0.0174080216307412
0.0281522874157977
0.0301902708888654
0.0178928821765736
0.017357334008411
0.029816434266383
0.0259217523556732
0.0166500102578752
0.0170568323374056
0.025691215671832
0.0238416097520168
0.0162328891572541
0.0159970024349822
0.0221039884659381
0.0241998094061744
0.0165848436893521
0.0162751855910301
0.0216278567179715
0.0221133013897171
0.0168607486622984
0.016122515585635
0.0207024181231234
0.020064965445114
0.016155545072437
0.0163400631809433
0.0209189193243822
0.0218100321808447
0.0167728266538734
0.016887206858008
0.022881743187443
0.0227297918995353
0.0167351914949215
0.0169330554660282
0.0233680738981949
0.0244072362913573
0.0173153468033632
0.0175526588712307
0.0248790034474418
0.0247794010062197
0.017429477681609
0.0179607449064871
0.0263588067133207
0.0256531277871278
0.0252087984021138
0.0171483898123796
0.0176986564815839
0.0183639759801264
0.017911202673113
0.0268424902396708
0.0271592168586852
0.027976923216448
0.0184745148819429
0.0187925790393846
0.0300505884736093
0.029241454145747
0.029339201318921
0.0189585207839259
0.0191191191142678
0.0185225218779554
0.0180688134028119
0.0178094605081959
0.0183821633045565
0.016506126771178
0.0162468622054282
0.0162310806265027
0.0164954716049968
0.0156226462410267
0.015551705648794
0.0155862836974876
0.0156552438724798
0.0156314137383809
0.0155712526298325
0.0153900615813661
0.0154233648112427
0.0154166888978685
0.0153856330328021
0.0154063077545361
0.0154375231380805
0.0153548624251715
0.0153362483694809
0.0153484374824738
0.0153641301569705
0.0153783507285032
0.0153641281185372
0.0153629980077279
0.0153772124839743
0.0153765773793899
0.0153625215733302
0.0153511742878258
0.0153639354636586
0.0153798328269153
0.015367560336813
0.0153669267319296
0.0153791402915973
0.015377948068114
0.0153658123790507
0.0153660298295433
0.0153781469267683
0.0153938393227391
0.0153813771984304
0.0153654166278937
0.0153783228132289
0.0153773329822887
0.0153643079390092
0.0153632910134038
0.0153759362880357
0.015375737364938
0.0153631139136606
0.0153766749308249
0.0153923431389522
0.0153934890553495
0.0153773507227105
0.0153778279081142
0.0153937850872996
0.0154080164612454
0.015391469269268
0.0153913153864737
0.0154077269742144
0.0155001594175164
0.0154697569923794
0.0154857828740896
0.0155182839944585
0.0155318555284371
0.0154983559258716
0.0155008633067393
0.0155340509170131
0.0157963013781245
0.0157200255557536
0.0157757702725991
0.0158581635920609
0.0159424835691073
0.0158843416256184
0.0159087559847857
0.0159685078678633
0.0160172554853737
0.0160039645019861
0.0160335187569727
0.0160465810564416
0.0166020773732023
0.0166139699927319
0.0166281536173958
0.0166061657308009
0.0169415436721894
0.0168833342658557
0.0174449559661129
0.0175090396269426
0.0176421517290047
0.0175773213974823
0.0177220579876409
0.0177872985453268
0.0190616223774752
0.0188651941011298
0.0210030233896534
0.0632629583832769
0.0550565241344847
0.0206671576674554
0.0210104629740682
0.0601167732254047
0.0609995703694006
0.0219436334760681
0.0213107744673166
0.0613117481298057
0.0578286728299464
0.0243001621872247
0.0265613436079887
0.0614811947693351
0.0556374501079606
0.0269282156755866
0.0271849638956596
0.0524562170963524
0.0452402973735251
0.025059914792465
0.0247501311419772
0.0445482914330014
0.0484332734375017
0.0246944030181352
0.0233912060888642
0.0480699232587584
0.0520510866614607
0.0235474141043708
0.0216054563801135
0.0495640576831821
0.0445511413770818
0.0202532716502463
0.0197885520557679
0.0498986860875875
0.0448180519749397
0.0180916044214375
0.0176089445444041
0.0408518609154688
0.0372197102103967
0.0172420028399694
0.0170337561335719
0.0347306864871822
0.0317228474471163
0.0168015393008731
0.0166310374903122
0.0290523221239847
0.0266081244569281
0.0165292119163061
0.0170835117375067
0.0259842214502339
0.0268270577449964
0.017598762940319
0.0176889612077253
0.0284734425270388
0.0307479468851521
0.0177864587933799
0.0179681207529369
0.0334140107346932
0.0363839430567272
0.0181481831525095
0.0178539839720876
0.0312307045592016
0.0338945696353914
0.0184615906520024
0.017912686209735
0.0331124623828622
0.0285319026469826
0.0170651149632697
0.0178743652190671
0.0288577617496175
0.0313496374190443
0.0190599856820872
0.0185551380853565
0.029894251408487
0.0268495703901185
0.0170026205204216
0.0174120226703747
0.026131239278265
0.0285880949289853
0.0175198997431079
0.0173404293331759
0.0264786706767686
0.0247279518910822
0.0172421937337475
0.0171674041574005
0.0231080347931935
0.021910707626191
0.0164739654901275
0.0164038421248763
0.0215953943625794
0.0227002801824197
0.0170323071204989
0.0171193241720667
0.0249693712567977
0.024575539467815
0.0170063372153979
0.0169994166336709
0.0244681591468948
0.0252854106703082
0.0174847228371126
0.0184824272066726
0.0273960250793202
0.0270136110360529
0.0185066116752654
0.0184120398480886
0.0276294159961463
0.028153903221571
0.0188874803208802
0.0191576855781926
0.0306981573174029
0.0332342173812086
0.019272138452456
0.0190908905197053
0.0323787586458963
0.0314854468586264
0.0321724149087853
0.0190744378165905
0.01963304749969
0.018308890181223
0.017963653109098
0.0163309971948001
0.0165832704211429
0.0165302765211234
0.0162904180953918
0.0163327736173845
0.0165383045191854
0.015688120548508
0.0156203565213961
0.015593877827372
0.0156485325072963
0.0154493259142707
0.0154143675807148
0.0154272362225314
0.0154576714660843
0.0154724357735048
0.0154439741796316
0.0154355270758571
0.0154613229505889
0.0154493552717403
0.015424608090912
0.0153639981392984
0.0153784115976547
0.0153955722561441
0.0153817639761065
0.0153814455182496
0.0153949637541267
0.0153937582696099
0.0153801232527229
0.0153790762465803
0.0153925021873802
0.0154094674059339
0.0153957135345085
0.0153838796202763
0.0153965432666471
0.0153952534242821
0.0153826890062956
0.0153811534030157
0.0153935995087004
0.0154097778107062
0.015396624678884
0.0153966133769875
0.0154099303278324
0.0153937401500056
0.0153800772274048
0.0153784683741979
0.0153922509411747
0.0153905658871751
0.0153772660054082
0.0153770648025717
0.0153902920485045
0.0154063924342534
0.0153903083369351
0.0153911595559182
0.0154078781004724
0.0154225742147636
0.0154053034551336
0.0154054449948567
0.0154225681724759
0.0154221768090757
0.0154052705634689
0.0154815585059878
0.0155119504788691
0.0155337477168366
0.0155007238148247
0.0155137691788111
0.0155479666871051
0.0155506564988904
0.0155168018351379
0.0157324549866252
0.0158084224073607
0.0158812498271564
0.0157977349173349
0.0158196792975009
0.0159041847628274
0.0159946052314797
0.0159330876210641
0.0159573825423569
0.0160207675913829
0.0160756818586541
0.0160622787306308
0.0160917294040736
0.0161053073302177
0.016694370102068
0.0167268628801048
0.016737332846552
0.0166940462154562
0.0170306162784363
0.0169829846661783
0.017083458762601
0.0171244683196539
0.0172205329770846
0.0171865587003464
0.0178749604186027
0.017937645863956
0.0191809628220224
0.0189986447986338
0.021153892928798
0.0703801697931695
0.0604967678321901
0.0208382330432816
0.0212396395742488
0.0670024100207403
0.0695829558743991
0.0223962039324328
0.0215041876778373
0.068328327025022
0.0664444949626952
0.0240952363010816
0.0262529667947013
0.0709962438209277
0.0621822788509911
0.0267489818830583
0.0250928678893241
0.0514844130625452
0.0469052003757058
0.0249763553096653
0.0246838985069244
0.045939233964495
0.0493000461969958
0.0246777323763271
0.0248277863767868
0.0547044138701153
0.0617991939014807
0.0252392442241358
0.0235157768737307
0.0565125324289394
0.0631892367343719
0.0244239856793881
0.0228248852226067
0.060932100498439
0.0499927785645633
0.0209787326688569
0.0209520282748376
0.0554148798537608
0.049214379126649
0.01874079420006
0.0181383584816609
0.0466123467030274
0.0420889462515593
0.0176885745102332
0.0173249630530484
0.0381695858958062
0.0397611174046084
0.0179423259278974
0.0176418138684514
0.0358916147976026
0.0324594002477211
0.0175120434705796
0.0174492378844959
0.0295908861382427
0.017387239033812
0.0173285040624042
0.0174210667134565
0.0166943916332156
0.0156556448643258
0.015610874552938
0.017007844407808
0.0182604075166605
0.0309219307400635
0.0365759785343528
0.0182077943614185
0.017959127764537
0.033700868837288
0.0308715864537867
0.0177293619153624
0.017766814419262
0.0301782731821475
0.027882163358203
0.0172899131481069
0.0178457522343709
0.0295067300892052
0.0273650490433235
0.0175185572122616
0.0172687873684388
0.0255880532815105
0.024220645263313
0.0171072345812013
0.0165800945889771
0.0233008499477862
0.0245672819333254
0.016762057564701
0.0170008545507722
0.0260911654856227
0.0279201923515586
0.0175144575190712
0.0173175851374508
0.0260021793964236
0.0244034230820603
0.0171740342636893
0.0171455046960257
0.0162071105975853
0.0170364623012747
0.0245999682444177
0.0234933327063367
0.0171586169683603
0.0170492877781297
0.0172424871572601
0.0165301285880769
0.0174306015858217
0.0272053481844933
0.0288761973694353
0.0180117399618245
0.0173411725661891
0.0175974589991239
0.0180273467406977
0.0327407350194481
0.029901859110472
0.0175934311549207
0.0182091722785775
0.0320400091691759
0.0340169024394798
0.0191412590203797
0.0197433290090275
0.0310434053895426
0.03124675113618