/*--------------------------------*- C++ -*----------------------------------*\
| =========                 |                                                 |
| \\      /  F ield         | OpenFOAM: The Open Source CFD Toolbox           |
|  \\    /   O peration     | Version:  2312                                  |
|   \\  /    A nd           | Website:  www.openfoam.com                      |
|    \\/     M anipulation  |                                                 |
\*---------------------------------------------------------------------------*/
FoamFile
{
    version     2.0;
    format      ascii;
    arch        "LSB;label=32;scalar=64";
    class       volScalarField;
    location    "400";
    object      omega;
}
// * * * * * * * * * * * * * * * * * * * * * * * * * * * * * * * * * * * * * //

dimensions      [0 0 -1 0 0 0 0];

internalField   nonuniform List<scalar> 
209453
(
3.61300584266218
8.6335783365414
29.5167480793311
27.1835269105579
7.67677956173319
7.41545602743059
26.2354013338861
26.5414495397879
28.1536130745567
5.8149462563142
5.56830931453164
2.92988625846632
2.73382521470152
2.891156258754
3.05245308645027
6.10755102009165
28.1690602471759
29.157909016841
6.08406191864321
6.23230692989898
31.0735377214286
29.9402686230655
6.45964925727402
3.24879620569365
3.05307119391303
3.30427608846427
3.49658579181748
7.25740872480359
31.9401109385253
33.2850229900221
6.90209063138811
8.88763539981709
38.3305173165479
37.0209476387082
9.45140330453799
10.0952048793752
35.9646441196709
32.1668501323405
9.11699550379506
10.1087464023708
35.9768176442008
34.7377727110581
10.259545490017
9.784570197959
31.0072373659394
25.6635637177441
8.13720479342282
5.59074530069628
20.3732142565704
16.8696854879208
3.55626490326236
2.38845890572971
14.4795564899692
14.0528729590185
14.3078949835305
1.08329561445082
1.0991221114905
1.02229876988976
1.00389430109582
1.00292042516096
1.00200523541294
1.00596344104058
1.01295899560234
1.02854078152704
1.01318836072475
2.48490538012359
17.5239304977162
15.8854151279913
2.40820739917238
1.15514996395032
1.813817638897
16.0655071255329
14.4258421841518
13.9025837844904
15.3789557218228
1.15330665395819
1.15752493289312
3.88394627368472
18.7305185859695
20.18158304432
3.92604265135093
1.33466229191695
1.38299313380572
1.39071508515615
1.33773328294932
3.74288433850951
4.01211658077082
4.02964201861903
3.75335282717797
2.63636945889002
2.66388315434594
1.39962403690322
1.34260222908271
1.11178134035854
1.14342191699792
1.41878309683475
1.28929627526863
1.40510279217125
1.50924995025838
1.54055974329069
1.51021841102689
1.65418043023541
1.69025661969324
2.10315973544715
1.8906156212132
3.87743277115626
4.34640365962592
5.6429326186513
5.47357043647833
11.4928039514502
48.3317151306613
46.1557112149976
11.5421436751557
11.8630134586135
44.4672260346162
39.9876140626678
10.7014079812672
11.4971084966724
41.0200766230139
45.5613324889409
11.5845750982823
11.9842102151997
47.0163934366848
52.2147809866229
11.731528024464
13.2979122983605
61.2231947745087
77.0502067080333
20.7224626093803
16.2147357243852
58.8095481295613
50.9773196739288
13.4484876705926
13.8794274293671
49.7398359920512
43.6204733772826
11.7534467765829
10.7319356117145
39.6239977909949
37.1717541776394
10.4273600653557
8.2275391689239
31.4281509018835
30.0128499744994
8.0034182138702
7.76072734042403
27.6902076526639
23.8655227764637
6.73854761930542
7.31352757086171
24.5630329713004
20.4120886263859
6.11817373285186
3.83063093806803
16.1769675170518
13.6650915748379
2.46335605789173
1.03664964349598
1.00859827501836
13.8942970443977
13.2922698105549
12.1490813803808
12.0440114641705
1.00303976606375
1.00997576017823
1.00309156995092
1.00125342581924
1.00310107183936
1.00943693663698
1.01168754007368
1.5289447387936
1.47064531595985
2.18602824411298
13.1957274847838
12.7852560044999
1.78346880747582
1.005775875182
1.00165575853631
11.855329505586
11.9247127976823
13.2253405798159
13.9077558568823
1.00409489665185
1.00982528347328
1.00100948075525
1.00057746897356
1.00020950960482
1.00039091938725
1.00090566728041
1.00038201116567
1.0006717002475
1.00296287890482
1.00119347593118
1.0004054076092
1.00034008856261
1.00050625469533
1.00009523729231
1.000068918462
1.00014934652626
1.00027000205811
1.00064574737774
1.0003272616713
1.00065645153748
1.00258392877437
1.07167624347387
1.03808748793418
1.00432104177444
1.00821483688743
1.03104986485648
1.0217437758554
1.03780199100007
1.0498160726666
1.07346252809366
1.0627095789255
1.17275904462609
1.21257628185809
1.25394595039195
1.21494751221116
1.26667373570865
1.30709581041792
1.39513060428894
1.34164128041241
1.445963160783
1.50888088456212
2.5452422986354
2.3006248164561
2.55647703358418
2.71875532728733
5.71656969918948
5.55485251743079
5.5493468227747
5.70402761830858
11.2157033514676
12.7885737691344
14.4837761126387
11.8662804814717
11.4788337179258
13.7463817350284
20.464980257529
88.6912784658452
66.3634802334264
16.2647738394297
13.5521315780649
56.9369862357186
59.4288828338193
14.0960614562907
18.8892770586513
61.8006007315807
54.0964372084771
16.5277925039571
12.1458647320343
40.7930565903645
35.3112650050453
9.43940673932121
8.54560723194673
32.8569464824938
30.8755029666809
7.96128233013868
7.93506136643373
30.1853613944898
29.6302854370316
7.96678801681876
7.96798738369771
28.1143570195965
32.9197008325504
8.67910151450464
8.16538490069065
28.1826457301479
28.1863789302757
7.37821904964676
5.4011728074505
21.1722711070176
16.215523254387
3.59863161954342
2.6065696461495
15.1428606157488
15.9003712467735
3.60415487956366
2.20299137969854
13.4830803813665
13.809419182981
2.07576392535747
1.01102515431183
1.00366844346258
14.9601036795823
13.9559878459081
12.8202285249448
13.6187197089386
1.00311189659245
1.00857495276424
1.00047754259334
1.00020562766569
1.00020626868379
1.00046423554899
1.00049092379395
1.00019313145819
1.00018417492348
1.00056027533158
1.00060448083414
1.00009592006718
1.0000198229107
1.00001670815424
1.00031493458669
1.0003774369823
1.00171340173429
1.00132324993336
1.00691720342304
1.0113607147503
1.03466675829475
1.02455664696436
1.035064595928
1.04517803392386
1.06206472285041
1.05512686966541
1.05150087068033
1.05814106500112
1.08482369948104
1.0774606314939
1.09250766994732
1.10496884543233
1.14382489061681
1.12916919894515
1.17697859725084
1.1947201853184
1.25936926468272
1.23429217084113
1.26834897276692
1.29877749104019
1.55069946380941
1.48405526267677
1.50752287236548
1.57527137829133
2.595472565736
2.36123137620125
2.43274332902989
2.6539041407379
2.8610560632983
2.73278911677155
5.65750701660058
5.82234312133654
5.80494150793224
5.6301946592518
6.28623781538733
6.29123497463335
11.7636554127153
14.2108077377493
21.1426612497739
91.9645998289876
69.5534239327135
17.1352471327354
19.8763801938963
26.6101119549812
104.240410759771
77.2180058878288
66.8736378471216
15.6920033940317
17.7320134728991
76.8179165492158
88.4013683061309
123.379605039831
29.7018899675279
21.223075968401
17.0747847126009
17.1002583116637
17.175342350856
17.1091508121885
21.6399243917822
29.1888424481868
130.157710539447
94.0131955940485
89.014080501158
21.4608498394219
21.0698164935007
91.2673259153858
90.7981161747573
21.2201430881723
21.0918454191532
83.515166238034
19.9991008266087
10.9831229388196
18.6467427410918
69.3394366213382
52.0243034151397
16.298126468192
14.7041900769583
44.7574862854152
35.4446405525367
10.1468584425524
8.2382227350365
32.0913682544568
34.7858331439713
8.50905762137368
8.4271781258344
33.9529483486517
33.8928682719371
8.4848772999145
8.62076698661149
34.3430514959547
43.7806638283144
9.6149822721941
9.96236852073889
40.1162764324402
34.0043115629793
9.07658133857032
6.66217509803819
29.7448094043956
25.3125323111586
5.90813527101619
5.48428012209943
24.8844035409355
18.5318584827989
3.65187086970585
4.79433127462945
19.0576125176237
17.7774172316673
3.80009067681786
3.29539732012498
15.7710680459541
13.4752279897691
1.81002430314541
1.45464827795184
12.5243366959046
12.4917322423775
1.42251795491164
1.00767892160881
12.8051980722447
13.6019591571411
1.00275248697208
1.00038057063333
1.00083768179057
1.00058925178406
1.00021138095785
1.00018492695126
1.00065365709509
1.00078956367087
1.00015330794124
1.00009413814596
1.00236156971119
1.00065874265719
1.00039941627611
0.999971103224733
0.999958948327779
1.00159721970451
1.00148117056229
1.00644368517596
1.01643620473862
1.03616139582443
1.01669546690507
1.00218191666972
1.00437176113466
1.09088078446604
1.05112540866365
1.11516047767646
1.16417480466655
1.19407120845359
1.14056104998654
1.17633023555842
1.2306264942998
1.07666559452932
1.0642396107252
1.0944593054726
1.10753519076196
1.09030687589694
1.08189488741912
1.11792510377194
1.12659635998842
1.12025583123476
1.11168244578908
1.15787581469199
1.16819024044159
1.2319886799619
1.21409373803788
1.24983031447974
1.27479659600059
1.30301120492106
1.2711483748644
1.31575217879004
1.35600830749801
1.34816562105473
1.30864843444429
1.52772345521577
1.59884758215057
1.62307621970567
1.55560818294337
1.60410198878671
1.6810806322102
2.69950095994174
2.49076843609431
2.99171311205214
3.02081717402502
5.99854863265391
5.82908331779538
6.56088047237984
6.47339913337158
8.59538240750942
8.97262208952983
16.2996079049912
13.565351659823
8.16587943762947
6.72976231384539
4.58051718447449
2.67734762120162
2.30637655817253
2.32222189181294
2.35677778041153
2.33277102403951
2.28602604905823
2.92954304077904
2.89423420300026
4.69023190259276
6.73698182921085
27.2552876674535
23.2918319039338
5.82705266614627
4.52299574926965
20.7465383031142
19.2692055710364
4.16659703766458
2.23694157306958
15.2193324708876
14.3935286517925
2.06088770678355
2.0068757057039
14.3146727468828
13.418154959863
1.77338261260999
3.19505109847789
15.6313130279452
13.7467355531132
2.01508613210187
1.01091150238221
1.00331602151888
14.9114810334452
13.9176090833169
13.1720222497206
1.01404631406353
1.00857383714418
13.8527955909653
11.8119535413503
11.687494571472
1.01081147111256
1.006938945939
1.00032325701778
1.00083202290308
1.00080026640264
1.00030213488397
1.00047688061436
1.00135267343676
1.00233830749714
1.29708760939262
1.34587833768451
2.17883828108844
13.4147703387333
12.1989919620479
1.62450186359159
1.93144754827292
12.3458473692826
11.8566927026384
12.0248778380301
1.00250197023538
1.00901903268056
1.00233854696956
1.00054560509106
1.00177170847452
1.00909148014667
1.01909869844714
1.00180881350598
1.09893685297827
14.2885422161235
13.9182949380186
1.10836821014095
2.52324697532516
14.362694895192
14.3825706535078
16.1561027337229
1.65861801028736
2.34043695737948
1.16160624649736
1.15075682241756
1.18521763531302
1.16843068657445
13.8977378658336
15.3720833215587
15.495725991173
13.698314801183
4.46607758492955
3.90306044200748
19.1208709677523
17.7117535240167
16.7646047683343
3.54540905622994
5.48878928829097
19.9951236431225
22.9946974494486
26.1277089726133
6.04556071402172
5.71512986585499
4.21560499673594
3.60828912808899
1.36611622326865
1.4747959095503
1.48601647106684
1.37388775014086
2.49397894959628
2.72826676042938
4.22168070962213
3.61823103898098
5.69175389181196
5.70819876276761
25.5114714660727
29.5615235805059
28.0190559879394
5.7240608839902
5.83287672967297
26.4050072252342
26.0435199299814
7.51017937547688
7.73332505072071
26.9078758217054
27.8524119307149
28.7695455765266
5.93016703596341
6.28414256679818
3.05091761926744
2.69640494319548
1.41534587392826
1.53803286637381
1.5705159152178
1.49590393831848
1.21713095526879
1.27056229947058
1.31983732124884
1.26770706182573
1.13330878422033
1.14543456257518
1.20105421088514
1.18860542884744
1.16863016528273
1.18152945210465
1.25414294272114
1.23308989018267
1.27789469189869
1.3062769186682
1.27989298223168
1.2539037622504
1.30700051704974
1.34247777030629
1.33104609680281
1.29671161272607
1.35000633465886
1.39913834751107
1.41926584954012
1.36560115741825
1.35647036013574
1.40849959756804
1.65417125942971
1.57493471822056
1.5961607416895
1.67383840045549
1.70845216262457
1.63225458504724
1.66311593634591
1.73180900021143
1.73415997500684
1.6623032047103
2.49271059612024
2.67756298182339
2.75364767436737
2.56768568172715
3.00087716259775
3.05487519202192
3.07608368170263
3.10795496302546
3.45167203917555
3.08268837260215
3.03897198797802
3.00970534797353
2.98584256485888
3.03210067032826
2.71342367120223
2.5164530082428
2.48535427893824
2.68120754285676
1.70095673519132
1.62582218098849
1.62955596562205
1.70206879958956
1.73212386872581
1.78676104184532
1.83537460961244
1.84898956134125
1.85469569224914
1.88562038876867
1.8818818278039
1.88843983733508
1.88972784676657
1.93477194760374
1.92547941026382
2.01259371319338
2.20783787739912
2.21770104886668
2.51780455190098
3.14225973777893
3.39094981735065
1.80576516729139
1.84926736149217
3.868896883555
19.2764959545845
17.9429274449568
3.35972408201289
2.71793810633316
16.3471006606166
16.816588271486
3.21585592530761
2.28036931423418
15.2089462619478
19.0872800495339
4.18713432000437
3.63569865319946
17.5225438144834
17.8778412287652
3.98693990621757
2.90014282725264
15.8586371631885
16.8111103726415
3.9139153745504
2.81903232932004
14.2387126522143
15.3744200830363
3.36646758062163
4.43056440166527
17.873342505411
23.1680124869396
7.02894826376196
6.12982227611738
23.0536120627434
25.491779252739
8.16562355328893
8.72427182819579
26.366483103626
31.9313902600256
9.64296887884757
8.62513650704481
29.2467524053788
29.6531556468034
30.7214373627693
6.02690323692304
6.5676486596059
3.18555991666931
2.83054968096682
3.0446596698695
3.3993841734431
1.66907005990781
1.60635228836418
1.79697724660696
1.87530363066403
1.39704862655985
1.34264975210232
1.44626670752392
1.49883032180302
1.27802009237903
1.26056095516954
1.31278496233978
1.33761488457513
1.30624252984186
1.27792222884472
1.33978019453863
1.37823961334956
1.3733498402737
1.33485049445293
1.39824162101968
1.45392986733582
1.41683154403024
1.36399804072042
1.38853705113923
1.44321855706159
1.48292238071757
1.42752836109173
1.41814989953251
1.46457901473182
1.46873515376351
1.42045434723136
1.4375709532694
1.48549737219733
1.4779843259857
1.42362422469471
1.41683163316522
1.46402665418447
1.46583614351135
1.41545945219357
1.62825654244688
1.69798635237878
1.73269995182052
1.66514979570038
1.67535767166641
1.74625388014817
1.77649371261219
1.70323202550705
1.70340089254419
1.77193631264977
2.693238731646
2.51223563232509
2.62418762106391
2.80173146183878
3.11131345342748
3.04555473820618
3.34594826957204
3.24221630987212
4.60435379594737
4.95703930751497
5.01366855341734
4.67045722648464
6.55809606959561
6.65037875461762
9.1609311875013
8.73571792999714
15.6635594805447
15.6406032000929
26.3044309125467
114.917564088259
88.2701178143477
21.1015367066612
21.0782457599849
85.7120613148615
84.7991490938509
20.5465330380562
20.8530379965501
93.7630979218783
94.9483094484873
20.9133273002223
21.0343254876673
98.8508560370819
82.0100515763231
21.5319943052598
23.3444243529241
75.4412326433533
68.3908366097456
20.7781829801353
20.0189229166564
65.64304673293
60.9904027191932
18.3141636512355
16.8444433320894
55.1173603328099
49.358361232863
14.08939676021
11.471719341875
41.3987759903388
36.8770397262467
9.46650301672001
9.79795171280953
45.5400788790363
43.7675059491209
9.44829402623671
9.42789462827325
42.6942148643231
42.9404379820989
9.47937453104075
9.62223853654601
42.3297643612296
43.7507094340262
9.73735606276801
6.95351576297585
37.8525856068709
33.4001356498137
6.88056077101449
6.72204496562042
33.4565896820607
6.05894092540908
6.74118409946748
6.93157669391427
33.3619402698318
27.4245657267149
6.41193325428906
6.33433072560769
23.4703116023908
2.40393653625495
1.15095541889999
1.12295515352923
1.9293000090269
5.41140665546902
20.936904637516
19.6541746329837
4.06039676420941
5.85335240347232
21.5027975948856
29.2664603591994
7.77965695435884
9.1162122686393
30.0886900436593
27.7963062357433
8.07711662909836
7.87808988812045
29.0675491391576
34.4509356254213
9.92569748606406
10.0246994984704
35.6447363187004
32.1992720089079
9.23907498853572
6.64817829814671
6.06278641427999
31.6716291862257
30.6283666446572
34.2027911159571
35.4275956595378
8.0681467444507
8.93179882005579
4.01015560356473
3.56768983203349
5.15532011930619
5.79220510297882
2.23992905590422
2.14007624148962
2.21966617697771
2.32168533182379
1.56246520823963
1.50478899618932
1.50729481294195
1.5628283597037
1.33599560915324
1.31223236958503
1.38309192080113
1.4190854839719
1.41538418003218
1.37957495927901
1.45836545371224
1.51393104491927
1.46723020228325
1.40981305354013
1.44624665349891
1.501439121378
1.54934051463166
1.49683159212913
1.48052839772546
1.53182103937042
1.54222202446186
1.49056490160514
1.44562177390477
1.49609289786291
1.54751971935502
1.49681380403878
1.47228130923199
1.52777971603051
1.50797198594036
1.46103123925409
1.46353073145237
1.51075641925105
1.52809589949017
1.48297130529943
1.46560925171923
1.51868821804888
1.5046965819531
1.45552276183812
1.45532504597555
1.5029603846892
1.53849719236336
1.49060263001082
1.69753462285279
1.76872274854785
1.78420536431849
1.71441055070165
1.74007894223151
1.82058487630921
1.8096797353207
1.74107487884175
2.53212237278399
2.71414026211807
2.85906084831695
2.6796053588917
3.10339794080891
3.17272018128813
3.30379287797371
3.43961626321423
3.54336059705625
3.37536121677977
5.30620337074538
5.61710636109191
5.61547896535158
5.29429966252431
6.69237685730594
6.77553472839233
9.30973858961631
8.85473261932912
14.8014431699995
15.3026765221106
25.1395356509078
105.927361066181
82.6376828043836
20.8283654692896
20.8322190878946
83.4622865914206
107.675445344932
24.9256580757485
15.2742618984208
14.6632004901019
14.7829106051615
15.413469755958
25.0705507665554
111.7038169468
86.7595362034499
21.0629856027801
20.8659166064479
92.8615741017058
87.7034443075462
20.4286654876229
21.2866544998492
99.2643352916137
106.542714128879
22.4643795995337
21.6095757446585
107.023099063282
99.61744149883
27.9450937819651
31.5671155975233
101.207954819663
88.8142997154754
26.9209372114694
26.2536310188054
86.5252860203271
77.532577099369
22.6445100721842
17.078233125279
63.908923431332
77.3874844529436
19.1577866664009
15.0491034337207
53.5984643594088
55.2421441342424
13.5662535468022
12.3519359684426
51.4898741931772
47.9484785756182
10.6476037231439
9.9026209416208
46.1263201861237
43.9797510250088
9.69102053115731
9.62738049923086
42.4239277410365
41.6839161965817
9.58472494425256
6.9282627888595
36.0996637501394
36.5499471728294
6.90368936173313
6.78496876684599
32.67961210378
33.1553507001322
7.3701622314054
9.26145238138948
31.6590309430153
36.7874179079534
9.90446413213896
8.88599822960788
36.7261334456873
37.7319796262564
10.0634422332441
7.9272802949759
28.8083211042571
21.0703639175065
4.92461155978193
5.70519261384877
21.5423675190234
19.3479481024532
3.98805971564004
3.51062570405459
18.4821992467209
25.9558965889768
6.31160852906813
5.73663262018724
21.8901885810731
27.8880338788083
8.4826265955611
5.79251762202898
26.6157940046425
25.7941229283519
6.31562924197841
7.01525306428749
30.066944315588
34.8953453804268
9.25743088236693
9.27067258144539
34.9080199049319
30.433349528503
8.29785722425696
8.70155899405183
31.7655893683198
37.7308482945797
10.7857328092823
11.7802750938523
39.968191030413
37.9868134300152
10.9491011811483
12.8379957447331
48.6186000192321
42.8814313742801
44.6068262227241
10.5315899990775
11.6120807669349
14.3898839410385
14.0408492498462
58.5827060850886
53.7002067621438
59.2455151620318
15.0331010391692
16.2766587296303
66.6258546113822
64.4749695042186
77.3635864544063
19.4721560652526
17.7018784743058
14.9823222974764
14.5315777520382
13.288569744743
14.4000374875576
6.01085753992503
5.42175398552279
5.40252276580839
6.01709816683242
2.36340532800363
2.2421608132813
2.3671978259833
2.50068129269192
2.41833521808135
2.30876369217789
1.58912092921406
1.66060146132966
1.64667550903636
1.58147911990909
1.67464409600742
1.75381009077774
1.52862185383658
1.47346518212369
1.52550118356364
1.57575702065
1.64792953251441
1.60060800546407
1.57570538657792
1.62859246589533
1.63170442739522
1.57959299578538
1.5233474663247
1.57665897161049
1.65760676229315
1.60099642153559
1.55961616379227
1.61504855457273
1.58682358898042
1.5355616429254
1.54543763939154
1.59841411817944
1.65632092097334
1.59777612880406
1.54356113117288
1.59731229777514
1.57040928260786
1.51229874029101
1.49856635362672
1.54875917570596
1.54998238040305
1.50166616381015
1.52414455144109
1.56945371003068
1.55797458547438
1.50382142954257
1.49089488936403
1.54417007517407
1.58135259914289
1.52352256433933
1.52344200492141
1.57319578263417
1.80487103839877
1.72771437385868
1.75147876956571
1.82584183457837
1.86477870667623
1.77715130521104
1.77911594393167
1.85398439491755
2.73964528546032
2.55544573325582
2.73773140902814
2.92011342826043
3.24655588791515
3.16623552365488
3.23248846738145
3.31873952953364
3.43506271252099
3.6215991021868
3.70301069159105
3.50849246858566
5.65242543287103
5.99322780115157
5.96208124482848
5.59546758254367
6.88319989394851
6.94436582163449
9.55557197900027
9.09263551970652
9.446614584973
9.88280944298999
10.2747581632416
9.87460311805198
15.0128061429661
15.6632290678459
25.3839636345228
117.292433326332
91.2332434109882
21.4626080885514
21.4437914527954
98.898641688609
114.939203094655
23.6581387617481
21.9038921798854
115.61547523192
115.736919870956
28.9101257668421
36.5752766101231
149.101823156924
151.313458990272
38.0942076554115
39.0910028562465
135.725763020735
117.786123517121
33.0018532106294
31.8577850936901
115.972700914833
121.719733718023
31.5968596767018
26.9057935276187
109.654520369297
108.398385192413
27.3986965033016
20.6038454350354
79.2597806727951
56.1140349510318
16.6380989071952
15.2065679544072
58.1948216457248
53.6692958603296
12.3666835345912
11.1974902698328
51.0210345647605
48.4996297900748
10.4056663868984
8.81896721503762
42.6672753615652
40.9668408168936
8.19964898014131
7.78426898245883
39.9077437901679
37.9272790387467
7.59534378838755
9.18527267299486
38.0090646100075
44.3591127004596
10.6535763428475
10.7424906492243
46.8532995877563
46.8289692952437
10.7492473654367
11.1410065067218
48.1415121104127
49.9325572039124
11.5012187431259
9.66603809876364
38.2795771351832
39.8684263634863
11.1697740665109
9.39572558307116
30.6130281697601
23.3430422940373
6.06058013870965
7.45412497784456
25.7979103648501
33.868686816173
11.0476404007407
10.1160737552591
31.57076444802
27.4754385562243
7.19991376488073
9.34555204430566
35.3433198676252
44.8084436030682
10.3949352138596
10.0168990300418
44.2323327480483
44.3877307860129
10.1002820059808
10.1138090689564
40.1738095813715
35.552559699122
7.37332298121813
7.11846667502443
33.4617057752774
40.475580863159
10.3345776525503
10.1844757469866
44.625155545784
35.7167617716994
9.30348754599658
8.85550071652167
32.3140229749155
35.7559734811046
10.3498741509341
14.8265324413829
46.5989703182298
51.2054041597248
15.3872314024862
14.8730231600959
60.1864594726605
67.963606769802
17.3407068068999
18.3556698554815
75.3147981072931
79.1038435151464
18.5799050466857
17.3192744489918
71.7640784773827
74.7401249600433
91.1062882599351
19.7580866465429
19.925844177945
14.0184504890577
13.7777703394757
5.71191949233906
6.32207795189281
6.15011703801474
5.58042736612168
5.76786400012789
6.25404080718294
2.66717690164224
2.52138574052943
2.41529924893538
2.52523717386616
1.78711897742414
1.6990051995154
1.76410723653669
1.84437754729449
1.9356879885056
1.86278586708905
1.8428919019193
1.91110540618567
1.87332590725848
1.81501491699717
1.63078597363115
1.67719578291476
1.81195976374679
1.75691135560899
1.7120948036905
1.75849233363955
1.73579729319648
1.67804806963012
1.66703297544434
1.72521434677571
1.85331339012605
1.78600133498826
1.69448618900645
1.75894356704096
1.69649458138422
1.63677243827281
1.59559390810479
1.65037578493582
1.72891058601725
1.67234028848144
1.64902208691336
1.72099417351047
1.64670486487668
1.58779736597927
1.54890483891566
1.61215602318282
1.58550363833065
1.53161373196692
1.53421317822859
1.5857569872504
1.60864306569443
1.56084810519516
1.5386925427063
1.59583887405986
1.63189258408684
1.57231572671798
1.5548862088254
1.61580064247039
1.6068889084639
1.55473920499918
1.75782960986402
1.83963746070991
1.86986064764873
1.78946818985398
1.81548841919207
1.90962225415696
1.90039960265725
1.8191665735787
2.58255610241636
2.76782348771574
2.98311535905484
2.79940876564437
2.8621418019989
3.04716669338058
3.40082473616071
3.30264081940613
3.37498076486969
3.47994601704991
3.57536138755715
3.78571196038122
3.87369126861145
3.65375408645654
5.8880478159454
6.26704707455144
6.22751370563595
5.82178391054964
7.1265188334888
7.14010076156706
7.33540026991209
7.41132779572402
7.71925486507763
7.54638558631904
10.7144401979261
10.3556567980472
15.3235713581769
15.9995709607924
25.8317721164634
123.597216153002
96.1258563923274
22.0056513795382
21.949767728759
105.428154989491
123.833463878541
24.5865000363223
22.3033060044082
122.793350750085
121.874712757844
28.2734357609644
35.3163305553498
154.119071497155
147.809939732173
37.3102864132638
32.7122748742574
119.05921238286
126.597368468972
32.552406757521
31.5296929888828
126.737516666496
118.378941228087
31.359410479331
31.7045526678923
119.768591985665
126.877007968983
32.7865751867846
27.1537209776096
112.657714748607
124.813611010385
29.7889573658946
24.5804517128109
91.508805589151
59.3847207078125
19.0375832896449
17.6248169452468
61.4618579229567
56.4850581039823
14.0656947220191
12.2688146034254
49.6672227696203
47.0499001422911
10.8019871814194
9.66337209261029
44.7186920334607
52.5004587964403
10.9686334492439
10.3312687408178
50.1555082197711
48.3149993194131
10.1041378902593
10.0794676248716
47.4425593187046
9.6612148654398
9.02223215176162
9.10446903530079
5.85276479304214
2.51107089868566
2.38330847368785
6.83609447829025
10.8804434315107
41.3654868462668
50.8199229697472
11.8556718356541
11.3706676358234
48.5663619883125
46.2337555000743
10.7765403075466
11.153526702097
46.0259653832866
38.7619150643163
9.32652825059332
12.1713148606124
44.3230900681334
42.7784683223935
11.108646530246
10.47370811718
43.0411227559164
44.1922454376028
10.2541963399185
7.49841441856364
39.0513243717784
37.8073618385064
7.84974785124088
8.45490943516141
37.6633596150618
44.6020568041115
10.4936078332851
10.0786859062148
44.2608876265971
44.738652154128
9.87671354295214
9.74472413009176
4.63024891844148
8.36457804490607
34.8437684350734
34.352991172521
9.44375537138049
8.72180748764229
9.14807350992739
5.52423524820609
9.00517678536915
36.0204034035652
37.5820745124256
10.524829554395
9.12712756458137
9.89492694170849
11.8616470355622
48.1560261852254
40.5289263889713
10.2975436937087
13.44908797837
46.9257683766604
52.0007895074311
16.2431858193494
17.2795714094541
46.7518610198048
47.1069981707064
18.503050857135
19.155031972405
46.7258705508849
46.789428114247
19.7847694576435
21.9012773222338
49.1075188593994
53.1191906232859
21.8824158477324
23.6520146601906
61.9334442428748
76.5190573128771
25.6856603407069
28.9543475105639
97.1402749720661
102.150605316637
29.907454470221
28.8910684722331
93.3602091262259
104.516221790987
121.83798395983
37.5452844899652
34.0446564164568
21.3240989486182
21.3765493285711
15.8643776539123
14.724862231895
10.0083699022667
9.65066071939134
8.79565398656193
9.42639434596142
7.92249455999716
7.35868047102459
5.62402988488296
6.01142068590305
4.41545968181466
4.23288881113927
4.22396395807855
4.39284833192837
4.32397837742635
4.1484592299939
3.99611727611982
4.1795440762757
4.11600657131769
3.90213390340669
4.09217842792677
4.31477269781496
4.50129479691505
4.24705435130315
4.19882031111329
4.44477724371422
4.38082161842628
4.11826701007897
3.94735510317397
4.17994272342333
3.83040602254209
3.62603415369926
3.23836304261051
3.41214310018147
2.89853361712623
2.75730882690375
2.43768922998159
2.55033643816889
2.25317698839972
2.16787140029169
2.01499806879512
2.11896896276065
1.91846321616154
1.8357735191307
1.72956529422748
1.81622463205848
1.73114072530366
1.6668555945261
1.63144667335848
1.69930553479061
1.70615877535518
1.64654403622015
1.6265040873739
1.69395555586016
1.6759295703296
1.6063933010039
1.6107256433802
1.66949713842856
1.89920880228453
1.81242622880447
1.86267598404553
1.95647349235813
1.99917566783492
1.89350478273854
1.90351144268989
1.99655109696433
2.82252905843437
2.63740828071056
2.92536541584762
3.11070217024328
3.17325080014687
2.98732815555737
3.45074052063136
3.56837248597754
3.65242992565934
3.52707467809256
3.96419542322691
3.72866904436984
3.80999785501451
4.05968871028204
6.50519562832639
6.10585030105791
6.03300959401165
6.45873770525542
6.71368384146249
6.31292076246849
6.22557049404513
6.65742831180784
6.89656242991165
6.49437739455953
6.38465600015555
6.83689968106261
7.78227760603785
8.02394988950029
10.869882035485
11.1615691142454
16.4295190116257
15.7264708589736
26.1442921330096
28.9619716150099
136.54334216478
108.081792944124
114.38070175951
23.5212568171081
25.1613856340182
133.396343938073
130.60559715343
22.787093679093
27.9940313705712
129.354913170648
162.775245863866
35.0357542708444
36.9811934350113
153.105654279064
121.606639290285
33.2058333700483
33.9745143434748
129.420828087066
143.113454559037
36.8791764510972
37.3421340217227
139.575714208158
163.537398088028
47.7078942700731
32.7951429817208
147.648617258514
147.340486410861
35.8637812023173
36.3139765765168
114.848352841552
97.6944876825589
27.3680856574094
26.0918533906095
82.1856484026285
60.2360190067613
22.6784544230969
20.3860079204556
64.2769957930862
59.4786973941222
16.3189953807555
14.0299923852303
52.6516294066914
61.9192664725228
15.2124742510144
13.3955604776537
58.3480057821248
55.2414473441688
11.9730377330682
12.2132615029742
52.0932048036687
54.6204212945168
12.9422237482612
11.2044417422356
41.1536862990685
43.757460713831
13.0594285584411
12.8007931938581