/*--------------------------------*- C++ -*----------------------------------*\
| =========                 |                                                 |
| \\      /  F ield         | OpenFOAM: The Open Source CFD Toolbox           |
|  \\    /   O peration     | Version:  2312                                  |
|   \\  /    A nd           | Website:  www.openfoam.com                      |
|    \\/     M anipulation  |                                                 |
\*---------------------------------------------------------------------------*/
FoamFile
{
    version     2.0;
    format      ascii;
    arch        "LSB;label=32;scalar=64";
    class       volScalarField;
    location    "400";
    object      p;
}
// * * * * * * * * * * * * * * * * * * * * * * * * * * * * * * * * * * * * * //

dimensions      [0 2 -2 0 0 0 0];

internalField   nonuniform List<scalar> 
209453
(
83644.8055324531
83659.9620319358
83681.6468724786
83658.7849860908
83644.3173167532
83632.836168936
83622.8981919572
83610.6279722872
83615.481118491
83623.5481739895
83623.0034314003
83620.2942170178
83620.2990926746
83630.9834414489
83630.5091607675
83639.161260217
83643.004588901
83640.9251876792
83640.4428314338
83653.2932572787
83661.6649357209
83667.6806771029
83653.2087750933
83643.7240209177
83643.9658810023
83653.9840487265
83653.5564514291
83656.9642553173
83663.5650201625
83661.9394811853
83657.1492312725
83660.5662697886
83661.8434260927
83660.8765045276
83659.6685152321
83658.0292214776
83663.6912823017
83670.609001903
83658.152169844
83657.4659848911
83671.1288555593
83658.2520265965
83653.0408225241
83658.3614912653
83677.654451722
83619.4174661704
83627.0393205379
83602.1369163544
83574.2522185308
83581.7456743291
83598.1376163905
83594.9486912749
83570.6340894587
83660.2480670377
83668.6130941826
83628.4052814822
83618.5350143534
83612.533766801
83612.7699053026
83613.2836884667
83612.9428819765
83611.9358992671
83613.3179620009
83607.9441213115
83607.8592758571
83601.9354570979
83600.361494082
83582.6438541207
83598.0646552136
83615.4879267055
83611.5019417164
83630.2353394179
83667.1735182805
83661.7754544313
83641.633065931
83620.7299361278
83624.5932178124
83600.9296649865
83589.644428073
83596.8392554629
83603.329731358
83607.735569105
83606.6797032303
83607.4375867258
83609.4464929844
83610.1924677752
83608.7301173554
83611.2867845265
83611.8616311507
83614.2841804164
83614.3552813357
83611.1395148542
83611.6342034567
83614.4742774153
83614.7558090324
83624.0186841585
83622.9942994234
83633.0128459037
83632.5914408584
83643.5582996813
83644.5780641657
83655.3528289151
83654.4610227638
83666.54790501
83666.8542863186
83663.1966467703
83663.0305041255
83675.4124969818
83675.5659307256
83669.4658998524
83668.8159419474
83666.8853990998
83669.2658682614
83669.8515585924
83667.4043164212
83656.1793380802
83665.8785147613
83667.1138302253
83671.1550581445
83688.7781897958
83674.2582261151
83674.0716822692
83682.8772677567
83681.0808295229
83677.2193036271
83677.4687159209
83678.9402536954
83681.4531740161
83681.1995760305
83679.3883530144
83679.2073606737
83677.6547025122
83677.6975793557
83675.1834168091
83673.3643457209
83671.1381340497
83670.6955561062
83659.1453175274
83659.4209330511
83652.4590575165
83651.2954586535
83645.963319543
83646.9355372763
83645.2027085769
83644.3876146698
83646.8216112582
83654.2214730423
83656.0436802385
83634.4692163344
83630.8907358977
83640.9614397568
83606.3465883775
83610.3277096442
83602.9668812293
83600.1540497305
83588.9875643748
83598.1188340584
83608.8616764052
83617.4016620838
83637.5236647691
83611.8400819798
83604.2674012701
83622.2556578571
83609.1224449644
83605.4996496794
83606.96936536
83608.1199514186
83611.44146366
83609.401030653
83603.2998104764
83601.2904084433
83603.5722558308
83603.0311377749
83603.1450654751
83601.5055692111
83602.642938696
83602.6738572777
83605.1067980497
83613.8288982068
83599.5794724028
83597.7888158654
83608.1453884673
83602.3243045519
83599.9889397604
83600.4548371491
83601.1089223147
83602.8436897486
83602.5365604198
83605.1575267337
83605.2895358723
83607.5268437617
83607.5795141003
83608.2031308229
83608.1873126371
83608.6462941275
83608.5413741968
83605.5573871097
83605.7718308105
83605.9358368903
83605.7298462977
83606.0789834445
83606.2738102139
83606.9872566661
83606.8709153846
83607.9774381437
83608.2699969493
83608.3926270917
83608.1831454719
83614.0791640562
83613.9661888252
83623.4305041463
83624.1694892454
83631.2360120181
83631.5221881709
83632.3152940123
83631.9507373208
83641.9890642642
83642.5915309506
83654.5866835393
83653.9469903341
83668.5285153766
83668.7794019695
83686.4056477798
83686.0608639134
83680.2341535046
83680.9319940049
83692.2035046745
83690.7555954063
83688.196503564
83689.3638939089
83683.8975459958
83684.1282106129
83682.6075409972
83681.9057760759
83685.1381390773
83685.0175979125
83692.4272041374
83692.6035016691
83688.1866760634
83687.211650653
83684.2089853667
83686.8380955618
83684.7582314967
83677.9857371615
83689.9361468901
83691.5477927049
83689.6368546292
83690.1922523721
83689.465926748
83684.4911819728
83668.9302537819
83667.9421456414
83660.9695188277
83661.1122182362
83652.8581580732
83653.5296485713
83645.9411429898
83644.5665708537
83640.5956841765
83641.9329782435
83638.0021021331
83637.7331410818
83636.1454543273
83636.595728272
83634.9874506104
83631.8999249724
83625.4227837427
83627.3691694654
83618.1081541696
83618.7105445354
83606.7637589641
83597.633915372
83602.3004157626
83604.8427293581
83603.16036095
83601.6173993835
83602.9733173922
83602.3780064725
83601.4391193475
83601.2654675961
83600.2924926453
83599.7245219455
83596.5801285298
83598.4087345625
83600.6166373278
83592.5733330182
83592.5107191779
83596.4980600523
83595.8514172737
83595.2968993132
83597.8317684803
83597.8025237017
83600.0915742258
83600.0886762036
83602.5081887433
83602.4040526859
83604.4364160186
83604.6846506568
83601.861841251
83601.7060567591
83602.9454994174
83603.17142704
83603.3517728529
83603.1001346545
83603.4155734787
83603.6929081471
83605.5250953759
83605.2385045827
83610.4982215993
83610.3883530222
83619.944738606
83620.8163694271
83627.5355697382
83627.7942112271
83630.2515173756
83629.9894472436
83640.7034403418
83641.2404944946
83642.1994811145
83641.6647623225
83654.7292553757
83655.4223021516
83671.9585976124
83671.7224579531
83692.9487957139
83693.0344500969
83711.1709163361
83710.2930683618
83705.6874025176
83706.6196018438
83700.6658526952
83699.8389880977
83696.037392819
83696.9161223135
83707.8204423557
83707.7048349882
83702.4394649971
83702.5547930286
83698.0065961524
83697.3908332566
83693.7731665148
83694.4779719208
83703.3843815663
83702.7656988568
83699.9499728292
83700.5078319211
83696.6819461114
83694.3491555187
83692.0390876288
83695.5760333157
83703.64837466
83704.1200115322
83703.310229481
83703.5594978182
83694.1306348665
83698.8914529394
83702.9079780001
83703.6368052297
83715.231508878
83709.148782253
83707.1357722525
83707.7266738936
83711.0114969175
83709.665591445
83713.853251725
83713.4810902552
83706.2981556892
83709.3097124542
83706.8706519682
83699.7124801027
83702.0629815425
83707.1102826532
83704.9726551953
83703.3544834888
83700.6633002177
83697.6080155547
83700.8169772817
83689.9210495692
83706.5004194784
83700.1324606103
83684.7985241941
83674.7090347648
83667.3097825484
83673.4076306825
83656.0830141966
83653.6838328212
83653.6366141529
83653.4795240794
83649.0119691126
83649.5007710135
83637.3521914108
83636.7167196351
83635.411161716
83637.1435830508
83635.8325828065
83634.0158551492
83632.1012267938
83631.3191810797
83635.3223432976
83629.6514099423
83629.8077029287
83634.3383282548
83626.4460283359
83625.6638959672
83619.491258147
83603.7642487015
83610.2202815689
83613.1419630795
83608.6253696276
83598.0034299334
83602.3462642068
83604.7644175807
83602.3369079615
83603.4613827816
83598.5755669897
83598.1398542348
83600.4581854794
83601.3995404741
83597.5200225876
83597.4635540721
83597.3658050594
83597.0532693126
83595.0336027723
83595.2368153337
83592.8269748224
83589.1802133221
83592.6141410856
83593.1757615901
83595.2668259786
83595.1861703158
83597.1937875022
83597.2609010419
83599.5509643194
83599.5734762669
83596.3467878716
83596.7745396125
83599.7405211061
83599.4383794378
83600.7636992333
83600.9029422223
83601.2235447579
83601.1619522741
83601.8064290675
83601.3448068514
83600.2138058083
83601.3940157547
83595.9445380759
83596.3698465796
83599.686764081
83599.2620868814
83599.4640890978
83600.1410649306
83603.8675205954
83603.9737941288
83614.2088611237
83613.7214199668
83619.5585346433
83619.1596182722
83624.3216653977
83624.565001187
83634.5964460648
83633.8904926741
83637.8955573087
83638.4881634608
83652.6882417699
83651.9899318455
83654.5309933947
83655.2352225659
83673.4047144902
83673.2145503518
83697.6750581861
83697.525478484
83721.8646612859
83721.2879396096
83716.7644162968
83717.6510230989
83735.1365044118
83735.1230194507
83727.8000573449
83727.8121580576
83720.4790322766
83720.3887090825
83713.8318321972
83713.8959237325
83727.1252582449
83727.5126268317
83719.8167240237
83719.3967959818
83714.1032182046
83714.2776540167
83708.0625896035
83708.1974451463
83718.7290713438
83718.7463834119
83712.614878635
83712.7869076395
83708.4769964567
83708.4839762858
83709.4572236395
83705.755646638
83696.9876706509
83711.1347206059
83703.3066029857
83688.6512063782
83676.2110954485
83660.3120193986
83635.7265958262
83606.2329467884
83579.4031622497
83549.9911856098
83532.7544905997
83534.4575116644
83565.1556697225
83566.3110118266
83583.0493986656
83580.282424453
83592.6955740646
83593.0643252063
83587.4040163383
83585.6649137407
83593.1218655019
83593.917064354
83590.4444150185
83589.6660756659
83595.4768650255
83594.9579795349
83593.1784167033
83594.0417141773
83594.0547510833
83593.616213661
83589.7557784679
83590.6251498767
83589.6321341526
83584.2593742787
83586.4119486188
83590.0597519149
83591.0781469022
83592.1055516345
83593.8076685426
83584.5952858453
83590.5879178971
83591.8656901115
83594.5358923093
83594.316030628
83592.9334960956
83593.1286886786
83593.1807061616
83592.9487386764
83593.8985483341
83593.5616025141
83592.9834029783
83592.1163256065
83590.8538348729
83587.9910123132
83591.2546133531
83590.0570429088
83588.4723428379
83586.9746842496
83599.4182438508
83594.0943312194
83591.5190729852
83594.9355386453
83596.0737772812
83598.2094712979
83596.1502898895
83600.1557674858
83600.8146166776
83611.7492897565
83643.4003333209
83640.6978916871
83603.9602048601
83581.1091067979
83554.987018964
83567.4340961066
83584.7810043752
83588.7975990335
83583.9648288441
83601.3243658366
83597.5558305298
83605.6244649242
83609.3393872357
83639.5811343841
83620.4088465367
83611.1108621629
83645.1439601677
83587.861135377
83590.849321404
83583.1890164173
83577.1578880316
83568.5135436037
83583.8837207962
83582.8431526054
83558.2904230123
83571.6219262284
83584.3719510574
83592.1084876171
83588.4433285279
83593.3069853938
83594.9956353803
83596.216376558
83593.8218842374
83597.6378581971
83598.6354797071
83597.9305416755
83597.6555515749
83594.4008748393
83595.5624578019
83593.7828992811
83592.9212161952
83570.0198265409
83584.4086163857
83591.9245330268
83601.5784663731
83600.6061556963
83586.3830595144
83593.4325866406
83605.4261268059
83613.4389803833
83626.1285126689
83613.167639184
83612.1829413071
83613.1263363677
83611.472980322
83607.4199191832
83608.4199079489
83614.9139559474
83614.2758884831
83621.7596663592
83623.1567891814
83627.9933926619
83626.9250664765
83637.6965857905
83638.7246316516
83647.9574291745
83647.3342814801
83665.1497725124
83665.4967522317
83671.3867919563
83671.0698660253
83697.2054079622
83697.0729180366
83726.8234198089
83726.5456964568
83724.4698307142
83724.9321430313
83747.4953396239
83747.9594560694
83742.6526195103
83742.3903814385
83762.9733444065
83763.8120642201
83754.0062479058
83753.172819619
83744.4143014117
83745.015411002
83735.4625733101
83734.9175357885
83743.7086863037
83744.7996397218
83750.1506414053
83750.300945566
83745.1166590443
83744.9992144484
83739.832514182
83740.0068213381
83735.3224316951
83735.1456669072
83731.7038958873
83731.8251122711
83728.5751565386
83728.4770963402
83725.6902956736
83725.808037021
83721.6067510779
83721.7788508966
83721.6419765004
83721.0521090332
83724.964062891
83725.6668067117
83727.5527604141
83726.5649006641
83730.2102071455
83731.2347557605
83734.6347679655
83733.5147038861
83740.3936199915
83741.260755077
83745.6815733108
83743.7969425887
83759.3018803564
83759.0681979257
83755.9852836537
83754.4137769674
83752.9627336961
83750.0730465144
83742.6132875471
83738.1437996265
83731.521273039
83716.6910435291
83695.1244019965
83667.900305981
83630.5963866766
83588.2955944291
83558.36126895
83541.4546478855
83525.263213739
83509.9433081694
83506.8053569079
83549.0787120569
83552.2925199941
83574.9518845676
83572.2794352863
83565.4407288094
83567.2046289455
83582.2360135567
83580.5883831184
83577.8534427271
83578.5392905102
83587.8741108401
83587.9268119041
83586.52616841
83586.8769592383
83587.1529534084
83585.4613285845
83583.9030066284
83587.7843913678
83590.1336757729
83587.6236728403
83585.0922628454
83587.5223227448
83589.6592310962
83590.352277763
83583.9385215422
83591.3699691526
83601.9856600673
83631.373151727
83582.5115547904
83595.0474554428
83598.2671489324
83573.0654198586
83649.362917919
83625.763030612
83624.4429773211
83645.0161798423
83632.4042408392
83627.1876308666
83620.4340414964
83619.94593136
83615.4299302825
83616.5186607167
83620.7745049625
83619.7074227388
83630.2300759886
83631.1694349812
83638.5366912207
83637.8050432661
83651.499439935
83652.1873657323
83670.4724937377
83670.635951866
83689.8167119443
83689.5678126312
83723.5949945399
83724.0767065702
83726.167950631
83726.1228911096
83752.2129293855
83753.3882844609
83752.6682081508
83751.8129626554
83776.8988243591
83778.291733807
83771.5114075757
83770.3750221709
83785.8307740681
83787.0722037135
83795.2257587934
83795.460575689
83789.7377898635
83789.5378879018
83783.1578097668
83783.44063124
83777.0680052996
83776.7569114856
83772.6379931487
83772.8405270682
83766.7411934343
83766.5991939436
83760.2956129793
83760.52411752
83754.601460743
83754.3990696259
83763.3990878075
83763.6203849235
83758.7528731472
83758.5812846878
83752.5245251656
83752.7365946185
83747.963106499
83747.7559743351
83742.2861902538
83742.5960804798
83738.589760272
83738.3406412038
83733.8711425783
83734.1684037191
83730.59917999
83730.4986488488
83727.9578340882
83727.7660990898
83731.3440033841
83731.5210445416
83727.5623987616
83727.4796459573
83721.2365120324
83721.3875982261
83718.6464775327
83719.3167464766
83717.7388344669
83716.7607713645
83716.1810902561
83716.5610488473
83714.9053799736
83717.8381428781
83723.611350658
83721.5318047743
83715.3821406307
83715.2868826673
83698.5658964628
83705.8340716495
83718.4312327209
83718.8993454931
83715.3065350172
83713.6058316579
83701.8690689406
83705.0185282673
83696.8346550805
83693.0192181568
83679.2536285134
83685.3200619165
83670.0338538762
83666.9474579249
83650.4593892472
83648.8081670033
83633.2138558294
83631.9732753532
83636.1696833494
83634.9138905534
83637.5370198196
83637.6415485341
83620.0543345787
83620.0363059392
83622.5084275581
83622.6051453822
83622.850048337
83622.893468933
83624.5243749054
83624.2088397044
83618.6836587428
83620.9629034581
83632.9816635698
83626.1889096831
83620.8506185313
83630.7752162704
83615.0861759197
83612.1990862605
83621.2725532364
83622.7964042765
83618.1427858671
83612.0807367036
83607.5454736266
83618.6833626638
83588.0546050167
83593.1255938667
83601.8869566475
83605.1063415777
83599.6064255057
83593.8739531653
83588.0380333439
83582.9792194708
83577.4611699294
83577.8570584673
83577.1535827478
83580.8302390618
83583.1097464682
83574.0685302047
83585.7650911899
83583.8065196556
83588.9081999655
83594.4209122643
83593.4400245528
83593.6125386078
83598.6151011494
83595.4056413201
83610.941469615
83608.2782823733
83614.8752802895
83628.6678250844
83630.2497481923
83615.9494795364
83616.0233298048
83617.0559993329
83620.6197628852
83621.927334771
83610.1824612806
83611.2335003817
83611.1073784734
83608.3940766682
83620.4870258083
83622.0679292853
83621.4452368823
83620.2473599358
83647.1214354453
83647.1301574603
83665.6630148097
83666.1667852907
83682.6879088864
83681.7436337917
83701.4186957677
83702.2220640287
83713.8041860555
83713.0170051614
83737.2425633707
83739.198841664
83749.9072423239
83748.4386908576
83774.0008024398
83775.8173719055
83780.1198486491
83778.4022683624
83799.376420521
83800.8417746648
83809.5954991547
83809.73892328
83807.492342647
83807.2617756706
83802.8702769716
83803.1892480482
83798.3896941631
83798.0038605228
83810.203342619
83810.1664780976
83806.4870479613
83806.5722946672
83799.937212423
83799.9140047136
83794.4761365543
83794.4166082197
83787.428090641
83787.5914328909
83782.644498486
83782.5437251159
83775.5847064851
83775.7057559141
83770.1806041945
83769.9894862439
83778.2406497245
83778.3594607834
83771.7015639021
83771.4272069566
83766.1726448448
83766.3705444737
83760.1981013921
83759.8710284947
83754.6979742398
83754.9121591764
83749.2972908623
83748.9544570354
83744.3643258898
83744.6857094433
83739.974532042
83739.5958622504
83735.4972486457
83735.4964554991
83740.4985745689
83740.4547738622
83737.2713284086
83737.1338266557
83741.2801046816
83741.3732206621
83737.6621117149
83737.7393465213
83731.9889351396
83731.487231605
83727.107500467
83728.4304681714
83727.4251787021
83726.6156233527
83726.5449279325
83726.1263824601
83732.9960401295
83731.884284022
83733.1373605007
83734.6187847407
83737.058451166
83735.9080520096
83743.7013925115
83744.7125848344
83741.2271532899
83739.169258096
83737.6576347016
83739.579767884
83734.7472847065
83734.4012056893
83728.1084252117
83727.804687524
83723.0564039128
83723.2591247862
83731.9131946689
83730.4392887316
83727.7313976285
83732.5095639104
83725.7211329586
83721.4197640693
83710.7220577189
83714.1690157612
83700.7626026942
83696.5398512707
83683.1148182125
83689.7340632992
83674.5094672276
83668.3516188116
83655.4110548163
83665.249915904
83649.9125487698
83651.2532726719
83616.4865801078
83617.3105616387
83585.6815080055
83584.5096144697
83603.7876244328
83604.6592320594
83614.1826991838
83614.3111578099
83599.5058667106
83599.3004035661
83605.3954052125
83607.1811291187
83612.0827152428
83611.5783816847
83613.4578614155
83614.038231569
83603.4711585125
83599.0946238218
83616.6545501631
83612.715387938
83605.2165212194
83615.6032403575
83578.5493052525
83592.7644650269
83578.3935341803
83572.4421519864
83558.8902250404
83555.8065535004
83536.4285629917
83542.8133071963
83493.4519007037
83496.7267963135
83462.0906188238
83460.4984616943
83436.2520397553
83435.6247141265
83404.4185983881
83410.6461148946
83485.9571581268
83486.7797128238
83539.2238979266
83536.5295164846
83533.1485706961
83531.7237788972
83561.7537620844
83561.301631599
83552.7819222526
83558.1174852725
83569.4742541215
83557.5069799034
83578.0921403621
83578.834083276
83570.4256213235
83551.820149743
83569.7393849784
83569.9778111746
83573.1454278213
83577.1171677877
83587.5853447663
83582.3461242915
83589.3465089583
83594.6439055519
83596.9581299636
83594.3043597976
83600.2094848491
83608.1593937889
83612.2446900466
83603.5867268847
83594.5474796229
83591.9327210549
83599.083973691
83602.4290542423
83605.60648774
83602.7817168715
83594.0503477411
83596.5032958995
83591.9319602755
83587.5432555239
83581.2029859221
83586.421140274
83578.3676046554
83576.1177648031
83582.4829293087
83584.101242846
83586.0781129745
83584.6468368888
83588.9770474499
83589.7640818299
83599.706489566
83598.3192691905
83604.2437738008
83605.2634969622
83626.5825901269
83626.4458737097
83644.1047618314
83643.9668825678
83645.3612328107
83646.0440401135
83672.1574390774
83671.2947600661
83697.2873368372
83699.3069099919
83721.5319168153
83719.4987596026
83738.5833878052
83740.5319749949
83763.6339655666
83761.8115361827
83783.5936528758
83784.7844963435
83789.9277560349
83789.8500072683
83799.7140144823
83799.6759722479
83804.3767769273
83804.605238509
83807.1710122736
83806.9104079183
83818.9971087359
83818.4975753184
83820.5683040562
83821.0013544886
83818.4695767493
83818.2247851187
83815.403246774
83815.6196255852
83825.0480321747
83824.4532609913
83819.2866401498
83819.6317231127
83815.6670957574
83815.3894391936
83809.0027652466
83809.1547424183
83803.4410066358
83803.3847593721
83796.4349097044
83796.3762371283
83791.0763304487
83791.1583913362
83784.2936383732
83784.112728184
83791.7208485207
83791.7128679469
83785.5963567006
83785.6077080872
83778.9636916742
83779.020891049
83773.3243792415
83773.3105412991
83767.026008672
83767.1543697621
83761.3645475251
83761.3112737219
83755.4343450861
83755.5843473853
83750.3306292654
83750.1497834344
83744.8821495198
83745.2666580353
83750.8211839788
83750.5445842618
83745.7629210083
83745.7089661789
83751.1409787986
83751.1154364501
83747.6836437989
83747.512076246
83751.8211249463
83751.9149400726
83748.1401625905
83748.2002986462
83742.1715258325
83741.6420775627
83750.2124601296
83750.7770733566
83758.2060674718
83757.7255965884
83750.5896711919
83751.5499504082
83747.3983613499
83745.0903655999
83743.4913793265
83745.7579163246
83740.6961292778
83739.7268699023
83735.1141564931
83734.9074677841
83729.3108310722
83730.0021940798
83719.2289288527
83719.4087520431
83713.6247166102
83718.1513551965
83713.5685960522
83706.5593782594
83708.2299894395
83707.3594474993
83695.8941170297
83694.9100620332
83680.5456770361
83689.6651517664
83667.6465319572
83668.5446653316
83669.5494113876
83668.4934370343
83651.6121868846
83661.6745015119
83636.9826103259
83633.8557007044
83594.1494904743
83595.0145450245
83555.6465320923
83557.4832205668
83531.5738389917
83528.8185397892
83560.6915941132
83561.900785676
83584.485736166
83584.1231554822
83560.0249963005
83560.8377775118
83582.4394253201
83580.8305118689
83591.018080546
83585.6554866172
83601.3102630271
83600.2321934965
83590.8050982083
83593.2630534082
83574.8146180442
83579.5346253656
83569.8904347089
83578.0421821567
83554.8537371584
83550.7993483289
83518.3499823544
83515.4453735275
83492.7104529117
83490.2075800266
83469.0490812209
83473.3467475671
83418.0122896123
83420.0807554843
83376.4945066126
83377.6871254431
83352.471544032
83343.0556044783
83311.9287432086
83328.8808836777
83322.3362907681
83303.4114551224
83364.2632883182
83361.0509468807
83463.0436758547
83464.4560876309
83468.5130448128
83462.8267934141
83454.7816818448
83459.1679781509
83501.9647123919
83504.1327188245
83545.1466599128
83534.7082995238
83542.5623092673
83540.6428906236
83557.4652355755
83549.0912139235
83557.5659561678
83557.2482883497
83555.9289084518
83551.1960220954
83540.3834875167
83546.910292451
83544.6435885689
83546.4681067091
83558.2203151688
83557.8063589201
83572.8161890693
83570.0169241923
83576.7364917048
83578.1371667235
83590.0794881394
83586.4533479632
83582.9117053004
83569.1340188295
83556.9124149798
83570.7916326893
83572.2518699068
83572.4129328482
83562.1402331577
83561.0047589159
83564.1449877578
83564.1361708936
83566.9522430256
83567.4057212028
83570.2087115573
83569.1615068825
83580.513626106
83581.2337177353
83596.5875624395
83596.3222183209
83619.9401587228
83619.8711818164
83611.7788314868
83611.9006608956
83643.8898001693
83643.4823215189
83675.4758937123
83676.5048200981
83712.1550275541
83710.6124863882
83725.3099973228
83725.1370178194
83721.4649143873
83721.2846566357
83742.8863299114
83743.3761402169
83759.5953731018
83759.3916941444
83776.3082050314
83776.5406482295
83781.8477643828
83780.2565128571
83794.7414798379
83795.9144988774
83808.6628827945
83807.5570819642
83814.558406803
83815.1969313288
83821.4206818621
83819.5676812473
83825.5349852339
83826.964649503
83829.8345283719
83828.769856658
83827.1159312722
83827.8861763452
83832.394871843
83831.2959961341
83829.3293256702
83830.1941595928
83825.5817341695
83824.9962224275
83821.3822144386
83821.8621658969
83815.8353730186
83815.5399892139
83810.1704898033
83810.4170808061
83803.8507220247
83803.7255024431
83798.3153658703
83798.4093983077
83804.4699894918
83804.2986079665
83798.1301532242
83798.2086418011
83792.3146278919
83792.2456953341
83785.9381638102
83785.9448650325
83780.0157506453
83780.0297823082
83773.7952410464
83773.7377379387
83767.7608727881
83767.8268657963
83761.9071975163
83761.7755715385
83756.1517773368
83756.2714741888
83762.0808526601
83761.936535941
83756.0296556733
83756.3597395269
83761.8747808389
83761.63612214
83756.5708557
83756.4858781713
83761.7782226921
83761.7694610874
83758.1073142667
83757.856673728
83761.8069033787
83761.955665624
83757.7124696699
83757.5788977222
83765.8357267327
83766.1961182942
83773.1809549926
83772.6074879987
83764.2915055039
83763.898339954
83756.0400037468
83757.016921487
83752.3333590717
83749.9396260326
83748.1098188546
83750.516824368
83745.1911306577
83743.7293544104
83738.1422753466
83738.6563298121
83732.8088022119
83732.8331164786
83725.1963531747
83723.9683477345
83715.2131982619
83717.0305071221
83704.9235238002
83705.4444771847
83693.2122263696
83690.9877390665
83695.3407657254
83693.6154538257
83681.8045718525
83682.2732727186
83680.5702209722
83681.4568881223
83678.7652491345
83677.90180546
83680.0741490878
83677.5223538257
83661.880877441
83667.4961560123
83644.839869479
83649.7668728824
83613.2654536649
83610.8112372775
83563.5065794471
83561.9674695256
83515.6270163425
83519.4233765474
83491.9741166262
83487.0670619059
83451.2399358984
83455.7948994982
83498.4117089749
83496.2997080857
83531.866477118
83532.87733314
83505.9470147006
83504.8225367212
83534.2246673272
83534.8436184091
83565.0589688091
83561.8778968688
83579.1010388263
83584.4139144421
83572.8029721229
83558.8557016316
83529.7669734774
83485.6397980579
83440.4633911069
83388.9602216872
83345.6692996932
83322.5773119131
83320.6347832174
83304.4499710647
83302.1819674835
83358.5696206333
83356.4190937047
83418.353608505
83416.0121978179
83406.0360023041
83404.9562350694
83398.2068737897
83399.1541483107
83392.1325264899
83391.0671084035
83451.5790424017
83453.4616568325
83501.7409991334
83502.22398132
83541.1477373548
83535.7374866405
83535.1307333692
83536.1086096668
83505.1411268362
83502.5680870558
83456.0226165289
83455.0778661501
83452.5127873455
83454.2711286645
83499.0760835889
83500.2911262586
83539.3147013602
83532.0912290146
83532.3213900481
83533.7743724166
83508.8112070242
83514.9734709969
83535.0878829126
83535.9271679692
83504.197879433
83464.9609510212
83466.478222979
83428.0302426227
83434.3654664395
83368.9070622548
83371.7151262708
83414.6579479748
83352.1346489109
83346.1148028309
83346.577766001
83331.9847693682
83330.2669696107
83314.4358799141
83316.8417342009
83306.9790222063
83305.8861688721
83315.1079025188
83315.5147263824
83313.1731391964
83310.2079401805
83309.2683424342
83315.1126872301
83310.4473604286
83307.3357529837
83306.8221694926
83312.6419217845
83287.3249803547
83296.1740923918
83296.6094172371
83284.1968954214
83294.3590019344
83299.0649786015
83304.9127254217
83303.9724377689
83312.2790013645
83312.404423114
83324.9036624234
83324.9914738808
83328.9861411906
83333.2025579557
83334.5344144854
83330.660089903
83333.3786600943
83335.2550845402
83365.2128066117
83365.9167830517
83374.8054961141
83374.3951519045
83385.7576683955
83385.93919482
83400.8037571613
83400.2659028886
83416.2226319038
83416.9908934142
83433.677471145
83432.6481825031
83448.0890189037
83449.3060941042
83463.2666142524
83461.9657758423
83473.0707575662
83474.240925919
83483.6873693743
83482.9907767504
83491.8237147731
83491.6204879087
83504.664747467
83505.6758883322
83526.8617551613
83524.8802490133
83564.2018907726
83566.3741706136
83625.5355799433
83624.6882145357
83694.5589153315
83693.932727097
83752.1030240667
83753.7702401157
83786.600436896
83784.7922175329
83800.6642684179
83802.2046318142
83809.5203213834
83808.0348270438
83813.1083560645
83814.6336274064
83817.141156591
83815.7757715391
83818.0740557801
83819.2511268407
83818.9868249667
83818.034215511
83817.2048793228
83818.0124004904
83815.1717897664
83814.6474691213
83811.7616626191
83812.1302733374
83807.6899362645
83807.3882261855
83802.7148319209
83802.9293187169
83797.4403082416
83797.3530432002
83791.7771715051
83791.8253712457
83785.8031227623
83785.7809209991
83779.7522939814
83779.7129412277
83773.5908145021
83773.6758875596
83767.7255269217
83767.645514678
83773.0878258912
83773.1543924088
83767.1976784197
83766.9220038702
83772.2130215577
83772.3945282566
83766.8219759994
83766.9425945985
83771.7774938043
83771.7350701369
83767.4672078335
83767.7769743021
83771.0905368972
83770.8849890448
83775.9356033821
83776.2761866826
83778.7902751646
83778.5367212119
83782.6356612083
83782.9770445215
83784.3437359022
83784.0409877377
83777.2562772633
83778.1130806861
83768.2477782978
83768.4800998573
83760.8097197777
83759.9595577203
83753.4703582951
83755.3479205617
83752.8778328204
83751.3626654817
83747.2251502603
83748.3717138729
83741.4682363831
83741.0926817134
83735.0293247491
83735.4057005631
83726.2227986537
83726.5673986716
83715.5515922396
83715.3868809355
83705.5481486209
83704.4607798529
83691.607456147
83692.7302902775
83691.4542069666
83691.3958690113
83687.8269266886
83686.8791334944
83670.0453087018
83671.9891312916
83665.628240501
83661.8388682818
83646.5756650129
83650.2178912975
83647.8593505603
83648.5145646013
83627.6648519024
83624.765628255
83596.1492359941
83602.1508031875
83561.1149697922
83555.3242920087
83517.9504778353
83510.6172424447
83459.0500650509
83465.7811860267
83441.6035715031
83433.7442437242
83397.0766659516
83404.9611487351
83378.9776969824
83373.2567543674
83423.6986379497
83427.4113566009
83468.9782555636
83466.9387164425
83449.6058631723
83448.3163121691
83414.6854158413
83409.2854865566
83384.1895525217
83390.5028911422
83326.8870273548
83323.5647221747