/*--------------------------------*- C++ -*----------------------------------*\
| =========                 |                                                 |
| \\      /  F ield         | OpenFOAM: The Open Source CFD Toolbox           |
|  \\    /   O peration     | Version:  2312                                  |
|   \\  /    A nd           | Website:  www.openfoam.com                      |
|    \\/     M anipulation  |                                                 |
\*---------------------------------------------------------------------------*/
FoamFile
{
    version     2.0;
    format      ascii;
    arch        "LSB;label=32;scalar=64";
    class       volScalarField;
    location    "600";
    object      k;
}
// * * * * * * * * * * * * * * * * * * * * * * * * * * * * * * * * * * * * * //

dimensions      [0 2 -2 0 0 0 0];

internalField   nonuniform List<scalar> 
207032
(
0.0157619051588369
0.0167961224914777
0.0219875132254951
0.0209310828772779
0.0164763801626254
0.0163987574808593
0.0205332504699133
0.0198798063021521
0.0195109896413269
0.0156667893719696
0.0160019681535085
0.0154895037625501
0.0153165081944844
0.015381189752359
0.0155490065078589
0.0161354087924529
0.0207216280454128
0.0205280975824554
0.01573716152626
0.0158302341234923
0.0218653291600382
0.0218088997616491
0.016293920419806
0.0156319819059153
0.0154429688641427
0.0155156395475885
0.015727998557906
0.0165271423342669
0.0229434990777581
0.023097412073201
0.0159824189862022
0.0168293117542861
0.0242155091446082
0.0240203158483733
0.0173594816695664
0.0173438701256848
0.0247593517391297
0.0233477842290805
0.0169338016389728
0.0170334636851242
0.0230869112877428
0.0223087331978301
0.0170935089543149
0.0169634203742357
0.0207073180965925
0.0194003547578444
0.016580565250386
0.0160014039920073
0.0184433255891095
0.0170955701635447
0.0154593827758813
0.0151585884400813
0.0163352315166261
0.0157529014949481
0.0153139956452791
0.0150257862352531
0.0150622562943849
0.0150487556492689
0.015014198230192
0.0150104693820066
0.0150068870504154
0.0150209020389495
0.0150425435484603
0.015080650481844
0.0150462730718698
0.0151573868877818
0.0163774706153639
0.0164072606362995
0.0151733400210536
0.0150558112910111
0.0150424536768949
0.0156348907480307
0.0157167445285298
0.0153049614857122
0.0153151788556501
0.0150205610943546
0.0150220947733173
0.0153518043102905
0.0171368302662155
0.017025686750306
0.015276817388974
0.0150892997842373
0.0151442397620881
0.0151583777810736
0.0150977946609756
0.0153752260401831
0.0156016287419426
0.0156201948602237
0.0153897479920939
0.0152670606155128
0.0154094390309344
0.0151770081505919
0.0151112048818107
0.0150777521663636
0.0151146498730061
0.015193334408801
0.0151284979705539
0.0151791766138268
0.015243143788988
0.0152884592029017
0.0152323747787004
0.0152892412699131
0.0153559370205223
0.0154808194324238
0.0153628548050996
0.0156933273504398
0.0159886171335338
0.0163550439838535
0.0161065335266165
0.0174188361787561
0.0256700682823348
0.0253539701679974
0.0178643081191913
0.0180155943994994
0.0259588478421346
0.025279628208266
0.0175776583697492
0.0178955111485178
0.026174134156443
0.0269916951094605
0.0181227449247268
0.0182588019150408
0.0265714068111512
0.0268057384274298
0.0184034387814656
0.018134505421276
0.0273412624050561
0.0300875623713625
0.0195044181430816
0.0192229061895255
0.029058217735315
0.0285365768289113
0.0185522744313569
0.0183662172834814
0.0303878020657626
0.0293156721469833
0.0176894345413319
0.0172661433209971
0.0263664002775409
0.0242387907366982
0.0171395588641087
0.0167650428898724
0.0232767418282899
0.0217035237277502
0.0166907083755946
0.0165092497213284
0.0203857895392822
0.0191283008703465
0.0161765312526015
0.0164380174167325
0.0202472606675454
0.0181784163005756
0.0158001047826301
0.0154920563548564
0.0171666851100347
0.0164044987693785
0.0152255712461623
0.0150576697181264
0.0150234716553456
0.0153197462503715
0.0158162705924935
0.0158129970424817
0.0152850125914977
0.0150104149692502
0.0150322221277813
0.0150185871214223
0.0150071936030046
0.0150120212539739
0.0150339953027941
0.0150384844643771
0.0151231387189175
0.015092452705978
0.0151789015750327
0.0163975822139301
0.0164203129337493
0.0151141998124002
0.0150151758897429
0.0150033136089997
0.0152869459374763
0.0158169611584532
0.0159095673668442
0.0153427518332668
0.0150009894917271
0.0150115666274519
0.0150063021123664
0.0150037262568807
0.0150018064816973
0.0150037396881034
0.0150080292479097
0.015003074542307
0.015004686522704
0.0150159538850158
0.0150104676457989
0.0150040487981734
0.0150026501188473
0.0150036571471202
0.0150007392109465
0.0150004774900269
0.0150010972721155
0.0150024470332269
0.0150057238775971
0.0150025146975508
0.0150068411913727
0.0150179821816228
0.0150589966540163
0.0150297961653883
0.0150142166093109
0.0150235753240344
0.0150649616228354
0.015046795753829
0.0150709508851577
0.0150885448984165
0.0151206431874906
0.0151056509949298
0.0151421759262001
0.0151758114038903
0.0152163776192113
0.0151816285887577
0.0152268623724472
0.0152625368390856
0.0152782389443392
0.0152419314317955
0.0152986499412357
0.0153510891065112
0.0153704322861031
0.015317119448926
0.0154557332107887
0.0155963732249115
0.0156362428768221
0.0155170493807587
0.0161646267752179
0.0163876478533523
0.0163733598922229
0.016163459412212
0.0179795234578932
0.0181429956782534
0.0182728946810116
0.0183029793210926
0.0181267265035233
0.0181070740362754
0.0192372263019062
0.0306318268318691
0.0315722910616468
0.0194715975673158
0.0196237821475117
0.0350524990385056
0.0332713377758622
0.0194319090247121
0.0186556416288441
0.0320880891745502
0.0304296378257619
0.0185421281216568
0.0166985812764744
0.0160870159621151
0.0159318050468987
0.0158925032447911
0.0158395626864338
0.0159638099073551
0.0159729120307297
0.0162828620572846
0.0256616985966216
0.024220897589577
0.0161990075030498
0.0161532067095581
0.0229097666710988
0.0216679741998922
0.0161313660519675
0.016085739288368
0.0203386940420106
0.0203442845442901
0.0160671682019707
0.0161552602370743
0.0196495763348371
0.0181937154059576
0.015697604420715
0.0153847316302784
0.0171657353946363
0.0171908852135152
0.0152429362651626
0.0153714578780932
0.0174192915068327
0.0165754964858244
0.0151585842081872
0.0151338725063886
0.0166614191920622
0.0159604068168219
0.0153731550387257
0.0150032601563437
0.0150099544171681
0.0150066010853804
0.0150029625473788
0.0150016714802622
0.0150036774196146
0.01500376619256
0.015001660256247
0.0150016156391518
0.0150041412282218
0.0150047245065623
0.015001563450815
0.0150008248777039
0.0150043781736979
0.0150023154392523
0.0150016729434079
0.0149996689592241
0.0149997711402008
0.014999545225493
0.014998994268686
0.0150016614621371
0.0150044059468504
0.0150185723493949
0.0150103662173112
0.0150073556440145
0.0150097404332975
0.0150310996587141
0.0150222834460542
0.0150568622312553
0.0150749518546407
0.0150947124149602
0.0150808548205729
0.015113427559443
0.0151235155519823
0.015113063807682
0.0151020268589304
0.0151351469356146
0.0151452313317737
0.0151560302312514
0.0151407351634067
0.0151752549271443
0.0151892786580252
0.0152077890381669
0.0151928945412749
0.0152438716219676
0.0152787716665255
0.0153001147359442
0.0152657040005881
0.0152858251598741
0.0153200412068237
0.0153398501894896
0.0153059892484967
0.0153688111504844
0.0154297063796567
0.01544959672017
0.0153907240305963
0.0154803110427489
0.0156068239917711
0.0156204497609386
0.0155046398278876
0.0155564857254744
0.0156609591116405
0.0164277373452756
0.0162304879249046
0.0162193997516295
0.0164119538646283
0.0165625849103058
0.0163923264682516
0.0182360933524321
0.0181926284973657
0.0186363724526898
0.0187412635716854
0.0208598949675958
0.0200688802191393
0.035681319968899
0.037911611816599
0.0429884619095449
0.0392402168842286
0.0201303875449372
0.0214761604198961
0.018933752743245
0.0193196682681579
0.0193260964891237
0.0189616358501446
0.0214007687654708
0.0202309627670232
0.041955971117898
0.0458005970586857
0.0440575146943282
0.0208654544866919
0.0201145062162385
0.0417054775185661
0.0432985072244848
0.0201306623599176
0.0202113645693823
0.043644481604453
0.0390564310365305
0.0202225367248515
0.0202301271916015
0.0398091501399946
0.0364001276510579
0.020219908708058
0.0193896739273982
0.0360054372855304
0.0339089333823882
0.0190335363791164
0.0197338115974098
0.034082363181736
0.0339242855069295
0.0195490954103233
0.0179942756916025
0.0298297999086085
0.0272772582685774
0.0172357677522237
0.0168620109402513
0.0250486165309912
0.0244711368365446
0.016655688293744
0.0166295132932629
0.0228750589158077
0.0214100010204421
0.0165941744657934
0.0165767626756457
0.0214819401844092
0.0223921483698642
0.0164451867182329
0.0163366008893499
0.0205617481560162
0.0220309356038827
0.0163449693596765
0.0161344635607645
0.0215266729818137
0.0228201511952174
0.0161542055265535
0.0161792738426949
0.024332913293789
0.0260461037363182
0.0162368798514547
0.0163100566231612
0.0280189984658183
0.0270684674752093
0.0166807217611411
0.0178631912569066
0.0286575788788361
0.0252426398941909
0.0162154142462797
0.0161011720057808
0.0226497505259974
0.0202099412715297
0.0160350358699063
0.015618517124541
0.018556968683873
0.0186634380738108
0.0154507223572157
0.0153333178916856
0.0175281704946399
0.0173192941840846
0.0151288195929762
0.0150602062879404
0.016554953161374
0.015901314288941
0.0153407317457083
0.0150016309268983
0.0150071256426995
0.0150113489702849
0.0150025724157739
0.0153398149942261
0.0158978749465656
0.016549689213154
0.0150680932929722
0.0151451705466324
0.0166561656973839
0.0159570546885668
0.0153704870531506
0.0150047502625736
0.0150090306704536
0.0150087966747864
0.0150033739870829
0.01500280163221
0.0150062402558712
0.0150048449643365
0.0150018101370634
0.0150015721870609
0.015005133428248
0.0150066329940893
0.0150016983177698
0.0150014137487647
0.0150115552154519
0.0150434244440115
0.0150089160230924
0.0150050084175595
0.0150021638973063
0.0150179730295896
0.0150368792537575
0.0150769410479753
0.0150453997186772
0.0151035742487654
0.015168404434919
0.0150694986141358
0.0150395120575992
0.0150895527606607
0.0151295298820493
0.0151549844783746
0.0151197522152486
0.0151598555283737
0.015194578691293
0.0151317357429461
0.0151184807616232
0.0151537988300994
0.0151664742063307
0.015155726349363
0.0151467020555269
0.0151776863848672
0.0151867636335416
0.0151778956263783
0.0151690345249108
0.0151849721068981
0.0151947070512932
0.0152055452838034
0.0151912125095297
0.015209948699292
0.015223905154356
0.0152266231826121
0.0152122323265705
0.0152312333876108
0.0152456051492431
0.0152651496994722
0.0152507034571462
0.0152700489454848
0.0152849887680729
0.0153584993901258
0.0153253742037413
0.0153423646360691
0.0153745269940388
0.0154656324580973
0.0154103735234341
0.0154292685217262
0.0154816270403992
0.0156336098279458
0.0155274061789867
0.015611685737913
0.0156888988851514
0.016484643357855
0.0163108077907432
0.0165167863373015
0.0166315875483279
0.017226003107169
0.0170546318527267
0.0171274378947196
0.0172839270974288
0.0189538873156645
0.0186441615968764
0.0186031594381584
0.0187511520762886
0.0200807784623209
0.0439909777503844
0.0468740118974976
0.0207001798803208
0.0207155467324803
0.0510662202665695
0.0476729060621546
0.0201131182145306
0.0200411100893022
0.049037203894403
0.0454007492627064
0.0200499374896165
0.0202220137717039
0.0422014110650727
0.0437527771458779
0.0202732140775154
0.0198571401317462
0.0394788683115436
0.0364862133378001
0.0197753441963665
0.0197412867363355
0.0356881990920851
0.0337511266967363
0.0195221393727523
0.019244634693323
0.0310775856656498
0.0283916382698558
0.0175928941488899
0.0167842772849133
0.0263120466434564
0.0265490348182124
0.0167165287026367
0.0166514620060418
0.024711960447296
0.0230705685895624
0.0166093567628456
0.016473971436138
0.0242599048247546
0.023588502378867
0.0163625716281265
0.0163975880831283
0.0254279936947702
0.0276016433142862
0.0164571860493841
0.0165363475503358
0.0301318926118746
0.0330495044838488
0.0166847819448791
0.0168582590642977
0.0305191668591193
0.0290363971864387
0.0175852461035279
0.0182621416789581
0.0300074442911912
0.0318627443655774
0.0183484658165185
0.0182201016471187
0.0305850847891145
0.0296789192939657
0.0172600151507005
0.0167332180970723
0.0260611238616971
0.0237847758064239
0.0159071865299305
0.0157694844475438
0.0217791968112332
0.0200771240997234
0.0155970849349775
0.0153856074855302
0.0193184246029377
0.0182307001825951
0.0152165993058585
0.0152755511323498
0.0182184521637672
0.0173128939511504
0.0151358323595527
0.0153548633862387
0.0175183824350933
0.017408463485427
0.0154458841780493
0.0152671849510119
0.0171650525475012
0.0171483489941891
0.015369832163214
0.0151671240511627
0.0163892704792979
0.0158087681061057
0.0152825180894431
0.0150062333247147
0.0150261500610679
0.0150135653117067
0.0150039508318514
0.0150085844733003
0.015030684408718
0.0150513312829016
0.0158154716647425
0.0153167900389574
0.0150170746652377
0.0150270910816581
0.0153126238805233
0.0157543229932729
0.0150625454366332
0.0152643810398952
0.0163401256143082
0.0164223367108981
0.0152513134567569
0.0151625958578535
0.0163711087039573
0.0170316956690053
0.0172044784920643
0.0155180279739081
0.0153560979175947
0.0156534602821306
0.0157846176301656
0.0184722894481862
0.0180769720778349
0.0186945468791363
0.019139187360824
0.0158669426114636
0.0156499721575758
0.015399778824808
0.0156101771215471
0.0155899574735098
0.0153856581547281
0.0151147982495978
0.0151847325422383
0.0152091078279946
0.0151315783883363
0.0152781306968379
0.0154129964683685
0.0154868868102964
0.0153282072601588
0.0154033150316866
0.0155646718363622
0.015270927350595
0.0152112668689847
0.0152837875565352
0.0153384972400562
0.0152383954763364
0.0152034690652425
0.0152512356041375
0.0152816477657911
0.0151981617031171
0.015185443810831
0.0152340721524443
0.0152438776539644
0.0152210309185904
0.0152130303876557
0.0151823860895786
0.0151926320976084
0.0152138015603959
0.0152056381607039
0.0152036747676409
0.0152130950842974
0.0152322446769579
0.0152228697380465
0.0152290727103398
0.0152429448255474
0.0152625761612283
0.0152486763818904
0.0152681489699936
0.0152825382395728
0.0153024252835609
0.0152860869619157
0.0152877569805442
0.015304604764619
0.0153251639289032
0.0153060254179931
0.0153592962206135
0.0153909528485869
0.0153973425771466
0.0153693577480514
0.0153830428565742
0.0154088997197918
0.0154906160346021
0.0154478176126719
0.0154568898517306
0.0155006679026497
0.0156360073104712
0.015548796490881
0.0155631138786185
0.0156533778979647
0.0157042935542621
0.01563402841613
0.0156523371634276
0.0157092207671323
0.0157122131305739
0.0157265133026672
0.0156213779796504
0.0156928186198997
0.0156911099482271
0.0156175925587615
0.0155404319977297
0.0156376919669858
0.0156291721429881
0.0155342644761816
0.0154405586726453
0.0154876603045049
0.0154827946258132
0.0154364862611212
0.015490298910656
0.0155237586587588
0.0155320590463973
0.0155343671737082
0.0155340402237887
0.0155079678540863
0.0155063887761697
0.0155022657978176
0.0155001778970886
0.0155146864830815
0.0155137349076407
0.01553727422318
0.0154441625260467
0.015433978236243
0.0154309523638057
0.0154347209120797
0.015445206026195
0.0154395151115325
0.0163866403040114
0.0238994988840929
0.0221396160015678
0.0156829325313175
0.0154975157358502
0.0206345027702244
0.0207471423289119
0.0156429708278862
0.0155441981942635
0.0193269872431526
0.0200144288308218
0.0159657538622285
0.0155527634547036
0.0186347797886264
0.0185944808311304
0.0157184785197012
0.0155002294925489
0.0181357310879482
0.0181578644075462
0.015652963684573
0.0157792130105455
0.018224269615158
0.0186383903478605
0.0159816998183314
0.016602782205574
0.0196438663089508
0.0203498045662991
0.0166705210611936
0.016466758236191
0.0207286717158957
0.0211441046317551
0.0166177823797114
0.016257671074853
0.0158609600253102
0.0205254953574291
0.0209129397017564
0.0200664674110824
0.0159746311267693
0.0156912967990399
0.0195988057924112
0.0220660879079029
0.0217252383733997
0.0162691989344733
0.0166415625626606
0.0157282826728605
0.0155229050196749
0.0157859542251194
0.0160249175144985
0.0154427733318015
0.0153848325070702
0.0154138519258352
0.0154701428943596
0.0153064930755339
0.0152754533963431
0.0152672875262821
0.0152986508136349
0.0153063464045478
0.0152781521924654
0.0152999060921205
0.0153280636641118
0.0152648618695305
0.0152517187639123
0.0152523129773167
0.0152631168536139
0.0152398021506328
0.0152306323756365
0.0152299186184407
0.0152393494683669
0.0152328646543391
0.0152247882514842
0.0152450519438408
0.0152531471072756
0.0152521771068129
0.0152427783171916
0.0152627350403314
0.0152728655481841
0.0152940973450129
0.0152812961617348
0.0153007478016374
0.0153166460936955
0.015323391728447
0.0153047096815716
0.0153146423331078
0.0153306373459796
0.0153423010537461
0.015328005025895
0.0153290365282719
0.0153436548515851
0.0153434890034323
0.0153287073315295
0.0153767589472166
0.0154019296618751
0.0154111610900459
0.0153879288217831
0.0153972478644876
0.0154215987676436
0.0154997374509055
0.0154601800476588
0.0154736156242259
0.0155148041224067
0.015644877597886
0.0155644808872304
0.0155849096080081
0.0156708244428959
0.0157215876932685
0.0156522851210736
0.0157107574285237
0.0157524972214916
0.0161205569823223
0.0161110885431853
0.0161413582066706
0.0161444223142247
0.0166768263583095
0.0165740642160546
0.0166318039189166
0.016722359720559
0.0173283521422763
0.0171854364927582
0.0172575950812165
0.0173900098081862
0.0187314248528054
0.0186196095813194
0.0186674612939562
0.0187736319820809
0.0201891073501958
0.0520295607149907
0.0561695812293051
0.0207776498602646
0.0208683099850723
0.0624409637145384
0.0573042603903864
0.020290165964461
0.020147692068282
0.0595218045910217
0.0537629219484365
0.0200802696594051
0.0203885875717574
0.0517299517880809
0.0538563782592935
0.0203905933861166
0.0203283856142827
0.0485314025830219
0.0429967412838632
0.0207335203451751
0.0212009009040347
0.0399308067043517
0.0374522600637201
0.0199600912706646
0.01786823828383
0.0171134553769674
0.0166418714581727
0.0164913600956284
0.0188215419530525
0.0311231521102753
0.0286196695365686
0.0172796412548934
0.0166903348611774
0.0315020886487615
0.0287381101530538
0.0165583422646557
0.0165103389679175
0.0263231157510302
0.0163300097111108
0.0159513418155988
0.0159798583314258
0.015557461213317
0.0156345202138164
0.0161638575317161
0.0165872679798013
0.0179859732688566
0.0315198949590654
0.0340327958102038
0.018634683921522
0.0191123984062875
0.034093327518981
0.0278727218125835
0.0173853200339822
0.0168154119743446
0.0268325673355863
0.0273970630643896
0.0174640037659259
0.0165745405524438
0.0240840520403602
0.0223576046154431
0.0158595143399721
0.0163794023161334
0.0248060625674926
0.0222817653102976
0.0161507505281207
0.0165961243712808
0.021664193995981
0.0228863968524064
0.016650938588836
0.0166009419478354
0.0214025428436265
0.0204759647928035
0.0160077658430207
0.015984189375538
0.0202540834408362
0.0195976774132808
0.0160682613602448
0.0163969785308303
0.0203908099659922
0.0193598559617516
0.0161813268409778
0.0165902729645175
0.020689406668251
0.021064899480257
0.0171367018849538
0.0171629475753115
0.0217431091839444
0.0223148148692104
0.0170960563381284
0.0173736531277917
0.0237423980068788
0.0233046887418498
0.0228577269990595
0.0165350672444518
0.0169345978610406
0.0174034406446063
0.0170961402822341
0.0243437781537235
0.0246528740399693
0.0250836669191018
0.0177030925437021
0.0179446055855962
0.0268329317627353
0.0263925089710625
0.0264458522093559
0.017875555711764
0.018050011992935
0.0174781504175818
0.0171391462193712
0.0169782473983582
0.0173773313545394
0.0160695206488072
0.0158479822778076
0.0158469648988516
0.0160663782491177
0.0154996987811904
0.0154325927741625
0.0154683981080102
0.0155345065660914
0.0155013994044134
0.0154476192116132
0.0152980213766239
0.0153283419421952
0.0153512952536212
0.0153212487960594
0.0153447890361846
0.0153749862104437
0.0153501169025471
0.0153224429484432
0.0152733508310724
0.0152862959730975
0.0152842490785359
0.0152736665001053
0.0152514038876524
0.0152604840274058
0.0152598358916696
0.0152505006879642
0.0152711163551154
0.0152813196205955
0.0152744010639535
0.0152654871273711
0.0152846218204119
0.0152965163219848
0.0153201549819841
0.0153047967316454
0.0153155557886058
0.0153283836947803
0.0153411306029682
0.0153300258033052
0.0153258190032829
0.0153372623478003
0.0153366220895565
0.0153249387019015
0.015328179176089
0.0153421263703364
0.0153551441878521
0.015342133112073
0.0153419674168207
0.0153554394980368
0.0153564077105624
0.0153426698423926
0.0153423060425152
0.0153562230930787
0.0153691085683561
0.0153551457437515
0.0153980426562703
0.0154206384953606
0.0154341604500735
0.0154099369295178
0.0154706633397493
0.0155091627697426
0.0155287619355486
0.015487875727742
0.0155766851141739
0.0156545578490055
0.0156881074746929
0.0156024447879734
0.0156692045465159
0.0157398359452175
0.0157732520906405
0.0157315925617758
0.0157522194588464
0.0157941824408491
0.016315811775232
0.0163076495166519
0.0163151453604434
0.0163157113998246
0.0164132861031167
0.0164187887701137
0.0164162672263777
0.016400902843591
0.016771030876538
0.0166930112557646
0.0167575936713466
0.0168238200473019
0.0174723497292774
0.0173417287504461
0.0174341475816377
0.0175645233884724
0.0188366408789936
0.0187344565658879
0.0188154200026396
0.0189115784361791
0.0204068642400251
0.0635361220444399
0.0698756190008424
0.0209755602018453
0.0211003256356576
0.0205401127974739
0.0709795508286124
0.078918228280221
0.0898506196574354
0.0212411976321657
0.0206894789721923
0.0797988476681674
0.0836183470727858
0.0204455893466018
0.0203269820274934
0.074284950783323
0.0663205766519216
0.0202287336318281
0.020980719140586
0.0658388768234722
0.0659424959770292
0.0205537992288117
0.0204596646509025
0.0594929625216475
0.0547281544325711
0.0231424460682117
0.022715154606151
0.0482947615127256
0.0433119686207079
0.0231252693382669
0.0220354800600313
0.03871384086511
0.0355035088510413
0.0213205698481396
0.0204243652340764
0.0350334148295618
0.0387869731032951
0.0188697237267985
0.0179138834635195
0.0346603367150426
0.0166126123570532
0.0162138065553931
0.0163416987812983
0.0158346778882788
0.0158059933145026
0.0158932108956091
0.01551415527214
0.0158208861774002
0.0162832129628941
0.0175975099565642
0.0280175620270792
0.0287373223966237
0.017994004800508
0.018086847261215
0.0289989138945486
0.0329989828397584
0.0192171855011623
0.0182714440339053
0.0305492546783983
0.0291725055896599
0.0181092005954359
0.0177366741293334
0.0278244323702942
0.02685789943543
0.0171323398640377
0.0169709151320667
0.0315324066565164
0.0288532394400019
0.0168414848240146
0.0167425506257475
0.0265993955764237
0.0245656596034176
0.0166664907775654
0.0166193780143694
0.0242846955617622
0.0231325452141268
0.0161120042075993
0.0163598126899734
0.0235179439887459
0.0220541702297182
0.0162952796138619
0.0162568201451752
0.0205176159342556
0.0224504740166114
0.0163684405229649
0.0165717060577847
0.0216678716167327
0.0216939289615989
0.0166396283452862
0.0169861207076035
0.0223446721885781
0.0232925434616575
0.0178221195359477
0.017905635314385
0.0236717001418628
0.0245699580755372
0.0177363377427502
0.01809798623329
0.0247409868218634
0.0268702095338635
0.0181945540495486
0.0182193881054421
0.0286173013140228
0.028149433333273
0.0179577198187182
0.0180486641978525
0.017828231295035
0.0277788372262893
0.0274478708078259
0.0286727971605766
0.029465827521799
0.0178513479094458
0.0180826443089691
0.0172905341693034
0.0170008517229122
0.0160035948198784
0.0162278388018092
0.0161794121562162
0.0159780829833025
0.0155040415889497
0.0155702561471656
0.0155295285530744
0.0154772202284861
0.0155044444398354
0.0155556165095299
0.0155784414053011
0.0155288616058976
0.0153680623574826
0.0153985362164088
0.0153714196929063
0.0153439573183886
0.0152950908365886
0.0153087551260446
0.0153063814403524
0.0152950591701662
0.0152722932964498
0.015282214683362
0.0153050370093705
0.0152920527500825
0.0152905062356188
0.0153036754416103
0.0153278084568231
0.015311108447713
0.0153222995040818
0.0153363701345219
0.0153498898639262
0.0153376544401917
0.0153310547973255
0.0153419645631167
0.0153571768499054
0.015346848729682
0.0153452375745733
0.015355835492513
0.0153513857018835
0.0153406518613671
0.0153394218420465
0.0153504686172846
0.0153646211949809
0.0153534199248892
0.015355482780251
0.015368452174164
0.0153687537429051
0.0153552263026595
0.0153555939160292
0.0153693799028155
0.015382457518966
0.0153682532391069
0.0153676937080229
0.0153820643387073
0.0154302807456135
0.0154078705027175
0.0154219523182317
0.015446501653943
0.0155187220447179
0.0154805624946234
0.0155010871012886
0.0155423906119839
0.015664632789688
0.0155877742899143
0.0156184794991229
0.0157050018533594
0.0157582176559054
0.0156857799541568
0.0157023857209076
0.0157765608319401
0.0158144038821427
0.0157716085299375
0.0157910292095043
0.0158348174695071
0.0158546682656948
0.0158097832358701
0.0158289103655224
0.0158749407501069
0.0164794757447233
0.016501801025242
0.0164967318125459
0.0164646065755305
0.016538469674197
0.0165761206590015
0.0165689298780687
0.0165226999700425
0.0168798197102618
0.0168226098808544
0.0168829539698933
0.0169374394402309
0.0176623891608147
0.0175329904402668
0.0176357520253054
0.0177658200398712
0.0189974711892867
0.0189086827735319
0.0190122378465254
0.0190944554611795
0.0192013333204743
0.0191238789656913
0.0213990840106792
0.103210310336658
0.0903181866357199
0.0208547459598214
0.0205804437521891
0.0945825420074655
0.0999214828197744
0.0212620582083674
0.0209550511432624
0.0960037236400599
0.0836769282814577
0.0207764953311403
0.0206591433528223
0.0738302094135612
0.0706184752184003
0.0228039834821667
0.0229599542327429
0.0622375660598734
0.0632803088795872
0.024336015377933
0.0245013683855261
0.0542001292743961
0.0490528897178513
0.024563043672049
0.0245926537895731
0.0461343509132709
0.0552472033805066
0.0245155900847893
0.0234290215041216
0.0225896666673753
0.0232076853434811
0.0429499308649422
0.0416210174550777
0.0231457884384809
0.0231050322946438
0.0416031693153159
0.0384865513774752
0.0223452033946833
0.0221420495742174
0.0374669561065683
0.041053641968735
0.0222166166258487
0.0206192695959575
0.0406315418751262
0.0440477947374745
0.0190503673034902
0.0171448876259023
0.0397806553798284
0.0362386965151911
0.0168935825578918
0.0169990288535744
0.0335401528594981
0.0336793457143642
0.0180166379295515
0.0180354756819706
0.0372604496242727
0.0345706539406123
0.018403419034806
0.0185535741970105
0.0378985856663699
0.0416558992602404
0.0186952630078281
0.0187515320014094
0.037545156443543
0.0419209568548094
0.0214794554200644
0.0208023235560513
0.0373750373125243
0.0364872939910934
0.0198531830869752
0.0186904316963348
0.0329181921894273
0.0308744650693139
0.0182622189489412
0.0179737500571072
0.0296582389454474
0.0304369258383254
0.0182421496631575
0.0182493202761717
0.0310686860479133
0.0362089561559477
0.0193906722598545
0.0214431569550412
0.0417351570504556
0.0360063140838218
0.0205181521036742
0.0192009441432052
0.0326711287797893
0.0298114058918137
0.0187609037309623
0.0182759840906993
0.0316246140178353
0.0377635047599996
0.0173233189248985
0.0171508660606744
0.0343571473891116
0.0339518280908401
0.017128154769053
0.0167565365903163
0.0302619949072435
0.0316037725923763
0.0170744654782343
0.0168293268469206
0.0292692376498932
0.0271217591821775
0.0166234459284257
0.0164672579885957
0.0251906543994224
0.0261412040110652
0.0165626483641807
0.0167830836420537
0.0247363410695031
0.0247249878840958
0.0168551802457436
0.0172442266216465
0.0260266884053467
0.0294236971893754
0.0179690499911982
0.0181247619240675
0.0294986233203171
0.0308353459999324
0.0182889175413757
0.0179766234994874
0.0297118259360726
0.0313120195012929
0.0180400942627235
0.0181614530010599
0.017923143637366
0.0312420095582718
0.0300256524289056
0.0315061295513213
0.0332491712060873
0.0180498597856602
0.0182912599596935
0.0174711614662373
0.0171730047044235
0.0161607531144719
0.0163914785947217
0.0162675701029646
0.0160765969288033
0.015573963139047
0.0156393650072241
0.0156685472074677
0.0156047741721093
0.0155493863392383
0.0155966606479148
0.0154209246268103
0.0153894095687941
0.0153636581314287
0.0153917199375226
0.0153321575801518
0.0153156856977414
0.0153153012019351
0.0153296036089648
0.0153552943197081
0.0153371981709929
0.0153133179963374
0.0153300630045609
0.0153390647228971
0.0153251115583332
0.0153414596152974
0.0153533269522227
0.0153500097234563
0.0153381179871837
0.0153549397310055
0.0153661930820944
0.0153659796889862
0.0153541248967722
0.0153708450786913
0.0153831813797088
0.01537318855169
0.0153626140788399
0.0153602288980823
0.0153710946617879
0.0153659442561222
0.0153551020456578
0.0153695713869347
0.0153809031316627
0.0153790227908218
0.0153672914438805
0.0153686304025825
0.015381967372434
0.0153821663134677
0.0153681887318107
0.0153814810999555
0.0153958483125796
0.0153957773760138
0.0153811779135417
0.0153804818613148
0.015395233747304
0.0154402713395383
0.0154180210184069
0.0154340250048551
0.0154588630498939
0.0155286458584945
0.0154907551227807
0.0155143304356518
0.0155560273359059
0.0156752374103674
0.0155992291657682
0.015634557025073
0.0157217694594532
0.0157383368917126
0.0156505946265964
0.0157189623626857
0.0157948596805325
0.0158131210127599
0.0157355304210565
0.0157521420865402
0.0158313719858701
0.0158496009328277
0.0157688110978993
0.0158476323153565
0.0158948122716694
0.0159152219027988
0.0158669044966187
0.0158858509812193
0.0159352636612337
0.0159558563411718
0.0159053858268551
0.0166447367312775
0.0165935660159067
0.0165758783706192
0.0166350445308644
0.0167069398075887
0.0166440852815786
0.016623846503183
0.0166946180744475
0.016939576660464
0.016995328631076
0.0170522849252887
0.0169929485587177
0.0177397243543619
0.0178729514888486
0.0179812013876558
0.0178419025688731
0.0179378883673519
0.0180868396546713