/*--------------------------------*- C++ -*----------------------------------*\
| =========                 |                                                 |
| \\      /  F ield         | OpenFOAM: The Open Source CFD Toolbox           |
|  \\    /   O peration     | Version:  2312                                  |
|   \\  /    A nd           | Website:  www.openfoam.com                      |
|    \\/     M anipulation  |                                                 |
\*---------------------------------------------------------------------------*/
FoamFile
{
    version     2.0;
    format      ascii;
    arch        "LSB;label=32;scalar=64";
    class       volScalarField;
    location    "600";
    object      omega;
}
// * * * * * * * * * * * * * * * * * * * * * * * * * * * * * * * * * * * * * //

dimensions      [0 0 -1 0 0 0 0];

internalField   nonuniform List<scalar> 
207032
(
3.36605399893877
8.27063609631234
28.5220092085313
25.8065433230529
7.03439392547148
6.83463959628399
25.4349575912027
24.1323389504303
26.6476767477083
4.51401170522711
5.11766148544274
2.58172032260186
2.17019476240923
2.29022811174048
2.69040910002412
5.54702881401102
25.4553427354047
28.3486912968045
4.68691717075616
4.87113334618325
30.1645999742852
27.1632015265331
6.09213638481104
2.90684416021289
2.41261357328371
2.59141677596144
3.1577088091591
6.8247338985554
29.1526121573975
31.907026089127
5.3860597383646
8.56103630245078
37.0413677789526
34.5728106151153
9.77700257335604
10.0643788368435
35.878186806632
31.6733373385191
8.76546309285303
9.62931690802392
35.4637346177447
34.2073907892844
10.0515513333726
9.6485683621363
30.4639634766882
25.1981822632146
8.08171786193615
5.33444832557544
19.2693513958289
15.3436580596954
2.89278654462449
1.51860352139145
13.738640858856
14.071276927302
14.3850306863459
1.07608750640838
1.09084283307815
1.02279588625079
1.00357592498942
1.00224664562753
1.00113827237952
1.00461737969154
1.01644025023781
1.03082735927531
1.01220255819969
1.73826445832386
17.5347411736581
15.3108501321982
1.67928632575458
1.06975326967396
1.04183382529114
16.6687280428903
14.8780122803561
15.0809171324926
16.5571683392283
1.03051749745241
1.03791032777905
2.44197169450192
16.6743533779639
19.3501261305767
2.38538131737723
1.16065523637064
1.2058870669474
1.21192036114598
1.16345766087125
2.93310105342962
3.5436557962295
3.54386488479224
2.94130615642064
2.09336523784464
2.3475450847881
1.218826426897
1.16797030454624
1.06017808408687
1.08353398440232
1.31752836215943
1.1873041069011
1.27981047395951
1.39999900931758
1.44407683214203
1.37053623638318
1.48152305848028
1.58032137364821
1.91371647506045
1.63368326603679
3.17539468831265
4.02868446144451
5.44030451169572
4.81565522033921
11.0837963487683
47.6655373367876
45.6290396614601
12.0509811304787
12.6604528361933
45.3008312294167
40.9946269000081
10.9380612308146
12.0879087200213
43.668994131292
50.3856176520489
13.0342881251428
13.6827252308952
50.6533821065363
56.7564825848202
14.6417838970603
14.687723565518
62.2502025612469
82.6838547365494
22.4021428532546
18.8696201555106
70.3247671010338
58.3655446459683
14.8730178088271
13.8040603201558
52.6307933744218
43.3354832600509
11.5379077675967
10.4219155713014
39.1427873146247
36.6859022966863
10.1164002050523
8.09211230912507
30.7339182455035
28.8062761558554
7.87206585679761
7.32126826801738
26.6743065514857
22.8752415885405
5.95890093845497
7.55189116561938
24.9937306579456
18.2468042228112
4.85812156175178
3.35675989503031
14.9408937345298
13.0727952182563
1.96761982664279
1.03819492595902
1.0105493057597
13.8826513787419
13.1540361750296
11.9403489795649
12.0348993838547
1.00269362397494
1.00926933824193
1.00318889832358
1.00106496835971
1.00255018026783
1.00907561212764
1.01100338502617
1.32778031393821
1.40775444859806
2.08352172497389
12.6802551560711
12.5438237003933
1.75959895297396
1.00575784307803
1.00167199145392
11.8498111794678
11.8081078027806
13.20790671849
13.9064488796606
1.004441269781
1.01019391004541
1.00066116798949
1.00040848450843
1.00011525659375
1.00023816706834
1.00081533550641
1.00027110356278
1.000541274854
1.00303261860542
1.00117791100172
1.00027398341788
1.00023534560291
1.00037431106773
1.00000228065185
0.999984959519069
0.999951419871819
1.00007119483923
1.0003108278827
0.999978873539278
1.00053505440552
1.00276604716596
1.04113195954251
1.01984803983435
1.00251554802681
1.00524442996206
1.02127678929417
1.01453904164679
1.02594985032876
1.03549315477155
1.05548317668534
1.04606423639148
1.10935118170465
1.14442222996782
1.18460210061561
1.14814178340979
1.21221830120328
1.25341786414473
1.26528589342931
1.22257770263983
1.37264911360565
1.45939004165462
1.47992238229002
1.39055330852969
1.85792597567533
2.23108730520327
2.31689219026353
2.03571768277168
4.8961555452303
5.45521873847531
5.41780993149626
4.88561187801597
13.7996820131145
13.4322503793688
14.0468159262401
15.5642696059973
14.5329036394691
13.171091400409
18.8552158147176
79.4373829731589
96.1666877628776
22.1068099916878
22.7088681997141
99.0595634565278
83.4193562993082
19.6355248008898
15.1442551713902
68.1673269926266
65.3039076201902
14.7195551495366
6.54657564215349
4.01961310395249
3.27984451247379
3.75049755674397
3.58338180767694
5.08935916499093
5.05189675341185
6.73738409732167
32.6432545107937
32.1800987070214
6.70300263243433
6.66365901847131
32.3679096646802
33.0281029380443
6.82291875225513
6.77934390637448
32.3429665348046
31.9360831868847
6.69476174540643
7.25062459843404
26.465709945259
19.2185750841127
4.84098787840958
3.30583384888165
15.2447392761384
14.8132100842579
2.54369051836704
3.52962086054113
15.7617807462584
13.4309526866247
2.1777632065299
2.02056758037579
13.7560683008079
13.9444163010229
14.959840519161
1.00388381911676
1.01157152156058
1.0008339962586
1.00025782097166
1.00009230168219
1.00021635726373
1.000179645963
1.00009235511164
1.00009068898056
1.00022640194719
1.00034639862371
1.00008054940086
1.00000748240821
1.00030912646535
1.00009550104941
1.00003187650106
0.999942156645945
0.999941599757399
0.999937267869654
0.999918668341349
1.00008739880503
1.00040173164374
1.00360522244196
1.00134157212188
1.00060483954271
1.00095371202511
1.00865098124835
1.00494627768799
1.01971314028292
1.02873253534504
1.03844673348871
1.02899944618963
1.0479102666
1.0546512414919
1.04676546238992
1.04091494458148
1.06535476011092
1.07182685929655
1.08223687176318
1.07153843671972
1.10407216625702
1.1161795551445
1.13756746347715
1.12283020986948
1.22874061570066
1.27039102854872
1.29885169569741
1.2569577842144
1.28376586238053
1.32643254715277
1.3577439848434
1.31477300698175
1.52323834086977
1.638249266745
1.66379088895579
1.55281494972789
1.88879178626324
2.20657885629439
2.20132820886125
1.92141049176412
2.11921628435311
2.34588020899484
5.47711962881663
4.99164867269753
4.96032960035467
5.43939357635252
5.89399015836984
5.56530370779983
14.9409123431587
13.3723129895353
15.3079932531363
17.2742091104439
28.6669774826036
22.3274555937592
93.6215683238205
113.256428448819
137.091427892488
105.480330123541
22.2095786545969
31.2995528830162
18.081129194777
18.4202334185641
18.4335519792823
18.1368218491848
30.7283024894251
22.6664073914202
111.624092171137
143.457392044173
121.125727347692
27.6990223987144
22.0325610027214
106.353874524012
96.0508376310008
21.6248933302915
22.0035861170404
97.0534103201341
94.0322309219951
20.5581687048645
20.6699463205585
91.261193898834
87.0497550712835
20.6575092015506
17.5938512744237
84.4965427448645
77.1026276538935
16.528027874809
18.2654709571077
65.3920683741989
54.6503778658348
16.6772844330316
11.1558268566812
39.7626236081919
34.9480829579999
9.31593873691354
8.35180576560776
32.3668745397988
30.254927913156
8.2647031929387
8.25397584856668
29.1212900143711
27.4230573856693
8.13458003276777
8.13007548255532
31.4657597933051
40.544837986297
8.69525464505546
8.36957485073121
37.4932233495203
40.9016872736134
8.34621322616768
6.83190143722885
36.6659256384187
36.0411628075042
6.7833861049761
6.77699140361357
35.8801106746159
36.469629789359
6.81175615233014
6.89208621028653
37.5488529808111
34.3164076489873
7.62747542305572
9.92801327876245
33.4947197774173
28.0937162099993
6.47321324251156
6.34157506354919
27.2414608544759
23.3247324080736
6.29361601517124
4.77235898945741
18.8791710715416
17.6166136413666
3.72841506073439
3.22606590532906
15.6485547949458
13.4120559034636
1.77133953787396
1.41440647210418
12.5006161564715
12.8236216586521
13.6192669010255
1.00347067159118
1.00924239318029
1.00797570821581
1.00297283036137
13.6044794499728
12.8124969858585
12.4972938939303
1.42104422149674
2.0212008251525
13.7715738775087
13.9329134098614
14.9140124260764
1.00339041380016
1.01192509316961
1.00125227478343
1.00031778288338
1.00022746926042
1.00053639472659
1.00029938400907
1.00010955288522
1.00008592740328
1.00033736029284
1.00060369670324
1.00009439436693
1.00006963392149
1.00212475232538
1.01790060941549
1.00177105667035
1.00074987670899
1.00018467820021
1.00429396786787
1.01464825051661
1.03657185602106
1.01301385952634
1.29171580230907
1.37531970079981
1.07450617917801
1.04165555929791
1.09481051542633
1.13572687474188
1.16531495746998
1.12099791146649
1.162342148833
1.20813458084393
1.07015307826887
1.05897777393705
1.08875500714976
1.10056097656268
1.08157068133451
1.0737934322688
1.10681896808687
1.11636968329223
1.10619200613099
1.09849401136533
1.11582166185503
1.12632441840999
1.13683037520601
1.12259384322133
1.14772207725459
1.16249120995306
1.1625728157784
1.14764721038278
1.17563420349694
1.19157584813978
1.22619716299231
1.20898260504653
1.2471641057149
1.2676231314891
1.39298423636752
1.3497439077987
1.38340027025506
1.43201981576328
1.68864916925589
1.58411102657636
1.61944065424028
1.71884408626055
2.20533994143042
1.95874342683777
2.27195540658984
2.39652980472647
5.53611562650321
5.13482525572438
5.81723187200665
5.92994193571606
8.64814177062447
8.52624862796826
8.59717471726984
8.63414947881693
16.4802589603295
16.2410575410313
15.7137578998425
15.2250222663765
21.5691467386721
98.3100864448489
110.437839890585
26.4287885114248
26.1762622666025
112.899168464274
98.3610870465398
21.4228964969586
20.4147550807115
93.2671965126991
92.144542110202
20.7245463028249
20.4142909525261
94.7372940955193
94.1496032140513
20.6706488045121
17.4705500009408
73.9839137031398
71.8131289737013
17.3343410681315
17.1215035307725
58.7257656521133
50.1917696509862
15.0253858321025
14.3027147346722
44.1340860213737
34.9120457252272
10.254104687666
8.48511705126486
31.5333793661014
33.8496946022311
8.25313522364713
8.18290188232855
33.0288543910333
32.3938812251558
8.15745306697764
8.67119602669784
41.2778898180136
40.9342669908653
8.33370770987291
8.34423420135391
41.048530419817
41.9804067799113
8.38697427506886
8.46354727291668
43.5361177015379
45.4932559860043
8.68402237965291
8.10031300382673
40.4505292248104
40.4159695269795
9.79271512645352
11.4738109848179
47.7747096698784
50.5828642816485
11.5680228368108
10.6770742950788
39.6697826424788
29.8997058589262
7.20578419613569
6.11499294213765
24.6101793650039
21.9957737897
4.59396933120234
4.46615890576478
20.6590240656954
19.142097725174
4.14998808371962
2.52965400463282
15.5314416627668
14.3688377475552
2.07561033442273
2.28246498229164
14.5219561237538
13.4059996363963
1.7620500362726
3.21133922618863
15.6657183924042
16.2725388270304
4.00748077434237
2.76518165085134
15.2036086949182
15.273252032606
3.30451829934969
2.07517780435744
12.7257496727531
11.933593713856
11.9846806099819
1.00186589116953
1.0078109710893
1.00207910686471
1.00041481736465
1.00145581389761
1.00839519962702
1.03932182697156
13.1930631354293
13.8435919467768
1.01381771333528
1.10447291783311
14.3406538567709
14.1245114853481
1.11384806148272
2.40040763615503
14.5973917813739
16.0448209688767
2.33212610443644
1.80920792670443
17.6605102667236
20.4609208188119
18.9785960598983
3.72596142550145
3.30441982423363
5.48067228590323
5.06282265873148
23.3117697511385
26.3736505838046
29.4749576794807
25.7990151378566
5.0987986221624
5.16671454035322
3.29684415017552
3.767012169581
3.75921733620908
3.28897146318428
1.29615753382756
1.38423003787711
1.39486291168807
1.30264944800705
2.29234927272135
2.48259342436985
2.73179371781805
2.39339659173605
2.63068706432592
2.96336923520375
1.53095751855975
1.43086027547247
1.61577243222009
1.66348749834217
1.25969755938761
1.21719522424444
1.2971114410984
1.32809634840875
1.13511274862507
1.12192155975776
1.2086455268717
1.21695881131258
1.17162875814235
1.1603356414329
1.11523194425596
1.12634728953266
1.16103567418625
1.15102436785835
1.14368975546712
1.15448231991145
1.18923638983714
1.17787324078043
1.17833221838654
1.19391793546677
1.23225325950828
1.21566982355227
1.25824575070009
1.27818695162759
1.33345937066695
1.302522040826
1.28530546098109
1.31671675790412
1.37108294983614
1.33047957458797
1.42128575356043
1.47623290104512
1.4933926337089
1.44062260138648
1.47084756239808
1.52328697044044
1.74249020418181
1.65279989752905
1.67108607409697
1.75630316314419
2.18817389522429
1.98327446210205
2.02787614365216
2.23470975721227
2.41781690692452
2.29251688376662
2.36155863459977
2.4223669425067
2.42261842452601
2.65201790654325
2.28594482852401
2.39793861909819
2.39709733502539
2.27119342597358
1.98141520268553
2.20686773331953
2.18428672181407
1.96285825715433
1.63937046418265
1.73033125102402
1.72373841756347
1.63251404776262
1.74132883921757
1.7840721962689
1.81115707507996
1.81150770440342
1.81702015554306
1.74583468846081
1.74092676860897
1.73801347461456
1.73267279104515
1.80497621026429
1.81553696236971
2.10095846711043
2.05998183120758
1.92807936676514
1.83701672775609
1.84909685214964
1.79537039420193
1.72301834320155
4.21287091927245
19.6867627097883
17.5848313832141
2.8762010383645
2.65318642804124
16.6705142013586
17.7739050362102
3.16566855978024
3.10176163205752
16.2364860768223
20.888544969891
5.5474615198219
4.08525792495884
17.9327492167689
20.2404762004454
5.34925670052697
3.98547647849182
19.406591674905
19.107357566166
4.72766616773709
4.91646701281802
18.5196905684057
20.3521079281513
5.42981969853556
8.31380232835375
26.0332314074801
27.3471660545631
8.93464438268607
7.58215503685235
27.5643597306835
29.835684309188
8.18652659656992
6.6798940095999
5.91711344245295
29.3780130776037
29.6871729902465
26.8565949414339
5.42631453446055
5.19957362450757
27.8431810619913
35.6875923361566
35.1727308151299
7.88677013820927
8.58831700894316
3.67394264782428
3.14118727479558
4.40831648214532
5.05621264984067
1.9875233114768
1.93320448353095
1.97206500106058
2.02629703041837
1.37613540647154
1.34248218186165
1.32116007017518
1.35504909027938
1.35999488550312
1.32517186119793
1.37363169245052
1.41077007022477
1.26250504596363
1.24347435361818
1.24676689830481
1.26053570449239
1.21108110984035
1.19524571967687
1.19141701738302
1.20859617450576
1.20046123809457
1.18871765084627
1.23567448119376
1.24838040970289
1.23205684862827
1.21944217589135
1.2680762114794
1.28401756531011
1.34624422594536
1.31769131431667
1.37504822195561
1.41492939300234
1.3928790737416
1.35260818019782
1.37592721541038
1.41448354495173
1.44760655259737
1.41107155086955
1.39305516115874
1.42679308741887
1.42079312247593
1.38471003135085
1.46838451874969
1.51848650955623
1.54898083297071
1.49821482075366
1.50442004912389
1.55583635847676
1.76591445905084
1.67818653019622
1.70521762145623
1.78548988371944
2.19922925972992
2.00957228774998
2.07340102775051
2.26735141768401
2.45168740805223
2.32514749702794
2.54840337455799
2.54543191011207
3.93049629432033
4.13438952109623
4.17696150342495
3.95589889161637
5.89963739481899
5.82228116473516
5.85156308114081
5.90057998818133
8.56339084547406
8.58222632067493
8.63596858249147
8.5781196351409
14.8434562051315
15.5041478841054
15.4356096819946
14.7645517763801
21.5082212759226
101.516953470234
117.405570954965
26.1523729321168
26.2468710034754
123.443717665236
106.275556051097
21.6994388001241
20.3981654604121
102.07464652152
96.900867708125
20.3437131133622
20.6810882510419
104.011568665142
104.407779769657
20.7897798240876
20.7292032614824
98.7704810232552
79.8757876018556
19.759723651691
20.6017180182729
71.337420872522
63.2458377261145
17.3026816386351
10.5952806718148
7.5493115689225
6.20225407968408
5.76235327600594
13.1437766249342
43.333696074026
36.2010347997771
9.47657387000536
8.85579290021363
44.5511614541198
42.8713466125693
8.6682384099154
8.65753095002905
41.7640783090233
7.60604404258813
5.38977000358094
5.57539919766786
2.52658272016319
2.64680112956688
4.16093950350348
5.10696613214518
9.63087124601479
40.3057588441586
42.4446970699975
11.0252086190632
10.2804760256993
35.4944085157763
25.3377035287423
6.04330081683882
5.04908112257787
23.1097521704772
25.9288843238721
6.62040012012718
4.80164971263152
20.887662120502
18.6575586230515
3.43462672487123
6.36487212379389
26.2696060903981
24.7672201633441
6.00455220603214
9.07330484686903
32.747799082172
42.4668108971796
9.5563982786395
9.59190347624792
38.5014296631954
33.4325305606958
6.75752948174496
6.60976975570888
31.1274105976263
26.0396358417221
7.07453777167223
7.55708886850498
25.4633074830709
23.7326712097673
6.13888322827135
7.9226533934111
28.6101848259665
32.2169596318278
10.6040568073837
11.0713846277379
35.1013267597549
35.454307145803
10.3167864152873
11.8066670760562
44.9234552970343
43.2627242772002
44.1087612263468
9.26790735352458
10.1104238325174
12.4855143532692
12.5571416557748
56.6005737644519
51.0614156455236
54.2125120650688
13.5930359021557
14.7624270613029
60.5148150566999
60.7837847021694
74.1750168992291
17.5489055379046
15.8473644334349
12.7075045279074
12.5909579692631
11.614361151177
12.2247702909981
5.09558430138736
4.4886248211516
4.49829242540153
5.08744414876905
2.16564350526019
2.06937227707405
2.12870228583342
2.21998418476095
2.07381573499174
2.02652755055792
1.38086475175175
1.41373037517364
1.46367965986118
1.43071525321854
1.49342431595922
1.52885722935947
1.47215069501045
1.43459420226772
1.29987113810128
1.32031185445636
1.316904161839
1.30155345587007
1.24649083404915
1.2639241458926
1.25812519583241
1.23928074849757
1.2950820583206
1.31844930860611
1.3059813929961
1.2897321154804
1.34611453255366
1.37506608355828
1.45267136642291
1.41066990559662
1.4432948211076
1.48269011655883
1.5285187004099
1.49060112237086
1.45612122962123
1.4875531222135
1.48339385588661
1.44926696466577
1.42527407209416
1.4599772017923
1.50211092977746
1.46756972606097
1.44868118942077
1.48499058278506
1.46370216546627
1.4293142856397
1.41845572950648
1.4532176896757
1.48570689767971
1.44992327478686
1.52551594294291
1.57777239213395
1.58808895269799
1.53526684637145
1.70079842348018
1.7890630642448
1.81611150353539
1.73580889723044
2.0300781519512
2.21344235297442
2.30279627822338
2.11180371427937
2.35964924350843
2.4905870208969
2.57900874971503
2.59389360699187
2.64104504399867
2.61717788424457
4.52525399459248
4.7369890083891
4.6924179004419
4.45972841237075
4.7511603800539
4.99935250553209
4.92237141652882
4.64560683605178
5.93751124762621
5.90272518471164
5.97006697574748
6.00692452160168
8.69369260570078
8.74450221893844
8.88928580521879
8.85793701657508
14.7777707119217
15.4459031425262
15.5129776884261
14.8399050246774
21.9523585716403
111.899767645931
130.422101347857
26.4116328576667
26.6442237720635
22.2685517965463
118.355469762994
138.539652929529
147.771220499308
26.9270021594549
22.6501115744176
125.41725832968
121.478715350925
20.8944233605537
20.6653420548141
114.639267115587
108.121959674699
20.502570538096
21.9694124575545
118.501058774764
117.873769252822
20.947221388132
20.8441147092578
110.838339803212
107.59132299644
26.2207090055628
25.1111229293001
94.184688377446
92.1572316167639
26.5649172251368
22.3476836246798
71.4841840899089
65.9414942354932
20.6963138384814
17.5071193117933
58.3827215018119
56.4699853119347
13.4951941587791
11.4887539895339
48.9821944566488
7.73034643464534
5.35743076649764
5.74408102588596
3.19091064212577
3.0640442380832
3.28855036832537
2.03433559753972
2.66780589784626
3.62134505084573
6.39534416598995
24.7252427669894
26.7266893825394
7.49248413416631
7.96130852031068
31.8110481063871
41.2816748308284
11.6932240004567
9.72435131794246
36.9605744924946
33.2205739563995
9.78079752434579
9.0465076544085
30.4642855569528
36.0810724803234
9.10865914973667
9.563686136757
46.7340556385746
44.5083157688791
9.34183804683265
9.37824104270006
43.0991696134974
42.4701553627815
9.28618237359791
9.20800745569603
42.6346292134548
36.1200091244543
6.78637563513607
8.26688834981582
40.1717756441792
40.130899049882
8.23088499359643
8.23722250194466
36.7837636941263
40.0310152652824
8.51308522392661
8.22883572976681
31.2174358070604
29.0415552101808
8.44084962498541
9.49127519025241
33.3469111492409
41.4513662607191
13.9266390794583
14.6922057528807
46.0160605787352
54.4724686081442
13.8045947677494
15.9727528700293
60.4027450539435
66.509739094089
16.2582737992816
16.161418463387
67.7220123964461
61.7106027014616
14.6414237058615
15.6248414423337
16.9691643883255
81.7717787907383
63.9351143672433
61.7621867448043
78.5275518817108
16.7195908306845
15.5059236605088
11.096528981365
10.9863304390763
4.76772120442743
5.35887123421922
5.14626967909836
4.6426494302989
2.19950668346402
2.28837560353494
2.12248298232886
2.07844537983328
2.13942916912983
2.18294905517722
2.25822670785482
2.21204954289464
1.57014233832673
1.61070139072172
1.54676956187725
1.50548497934597
1.36847251639668
1.39410158068636
1.38823798659549
1.36793322813017
1.30775785742348
1.32961764626925
1.41302633491567
1.37738224135128
1.356434463353
1.39257516436276
1.48568224886726
1.43404432085805
1.47762797092482
1.52806340502902
1.59617754616081
1.55398626117996
1.51482039531921
1.5442418388167
1.6177691256835
1.58685220342922
1.55221141697859
1.5951115572355
1.53649674046657
1.50567156134153
1.49415792956224
1.53082398236817
1.58040954566479
1.54067819169727
1.50774576179842
1.54409555067342
1.52225546933503
1.48404402366933
1.46214956411591
1.49880365331186
1.53164559548324
1.49232909475607
1.47927016022164
1.51732885606107
1.60451142226657
1.5507629831214
1.56397964160099
1.62009145223094
1.81148743890757
1.72175306060125
1.76415321253214
1.84676302475625
2.22920413251726
2.04875087197436
2.1479392114004
2.33941671684256
2.53386402247207
2.3960915584472
2.43366820901335
2.5773537631448
2.65494727720207
2.68323057598062
2.728713494059
2.69505918610405
2.73487142450224
2.77175224939859
2.81998078523454
2.77782594102513
4.871675378077
5.15891331710032
5.07816421801371
4.76413988777918
4.97823048865903
5.29040334014393
5.20916920919829
4.87294104691832
6.10034624974497
6.04050051688599
6.10000012071588
6.20797514677347
9.05237679297408
9.06246779367853
9.25535608985676
9.2795848646979
14.9485410667579
15.6329274562416
15.8023900674609
15.1088448333567
15.3205164563974
16.0157835158485
27.2624965900169
158.284060390437
133.126846877619
23.0948888001526
21.1675653282599
128.598651710329
145.062074592192
22.5118706997364
21.6306923155022
141.368374138562
132.830220462966
21.2903806135222
21.0936524688751
125.031286304695
120.595012214383
25.2121792294462
25.668949194632
113.838804148435
138.617301242702
30.7078927509763
31.7320824557516
130.225956153912
132.077618113458
32.1433179126221
32.4351791880743
119.002603476329
133.123226926247
31.545656579213
28.4188486291263
25.0339877233881
27.0317450823604
109.663915565227
104.819315682772
26.9101092785212
26.3644695262602
97.4944091624589
94.2041822895138
24.8814491353386
24.4656724428182
97.2591597041941
101.722568162623
24.6246832518402
17.927258035611
71.483567503238
62.3293999233235
13.8247093415754
9.46920607088516
50.5708831303546
47.8790434501207
9.02681758538744
8.35363149253878
43.4620342547004
51.6994495352908
10.7748691412737
10.7210604665522
52.9122994391773
50.7315147575458
11.4953461933336
11.7746105980694
52.626971897743
55.1838539647519
11.9403347675886
11.0705025970007
47.3703081160197
56.06966942264
16.3672518076249
13.9271714753159
48.2737257228343
39.0791676078613
11.6239145735993
8.50525772428091
32.0232020629268
29.0205070950168
7.8194014078961
7.0269358857145
27.6783371401693
29.2243316669075
7.85050819134586
8.19716934090683
34.2607616198288
46.426530778206
11.9470441251171
18.1305543458493
66.3062414125561
54.279480648378
15.8666384454796
12.7246247981578
47.1381456847944
41.2204202572192
11.7234875364514
11.5151869129828
44.1648698901543
51.6595349053206
10.1415072494864
9.79185774919882
49.0304063453171
48.9210901117073
9.99873748636692
8.02459723901461
39.8169147215294
44.5499142577618
9.77030558104328
9.12158573977187
42.6496783621404
41.0676109458077
8.66210948042466
8.39214472301055
40.1713629361913
40.8964654968109
8.68039364322086
8.48153301160938
32.7582056793384
32.0186756473614
8.73265854793075
9.99006231796356
38.1421950643112
52.327562393812
14.0793877029988
15.4378090555464
66.9663614746477
69.0926389565885
16.2385653382787
14.4745584354774
61.2387676643884
61.6820938860243
14.494922628873
15.593489069733
16.721246612913
77.8322343437806
61.1119444447326
61.6451431673106
78.829181445506
17.0185856954782
15.9673365262481
11.4423018407806
11.1657335632564
5.18029942665862
5.78149450128932
5.25115877569976
4.79300399677757
2.39691085547684
2.48570404526278
2.62817464250915
2.51880910977255
2.29316625830454
2.35995409305912
1.71714132366503
1.6557812281438
1.58402727101955
1.64262014443855
1.4911125564672
1.4478311677399
1.4456251251117
1.48210656840173
1.61694670042338
1.55588128478718
1.47363030092039
1.52872829398395
1.57572328386349
1.53725458453353
1.64478723579979
1.66801773682399
1.59754406811431
1.57618801185207
1.69387374926703
1.71688165992608
1.70916654577879
1.65518914498444
1.79583357684057
1.85897664544895
1.71668993557849
1.68351509823216
1.627864988074
1.67434477676976
1.59366942067062
1.56202839652776
1.632516069915
1.66518683870228
1.63600636466558
1.59313976458094
1.54881636381597
1.58724839885011
1.55946155363354
1.51802583912007
1.55292273607896
1.59857621208535
1.56347136635535
1.521684123885
1.50696031882365
1.54749918937606
1.62924865231135
1.57432747114516
1.59160693415745
1.65116155530869
1.83362872500551
1.74235971277715
1.79185027340044
1.87743953246099
2.2463094225616
2.06803962245703
2.18434351169196
2.37617874355421
2.41216428436663
2.22019027379932
2.47272232152446
2.62332209935549
2.66819120980603
2.51180376423824
2.55158119922298
2.71222080495765
2.7532194563361
2.59006937404237
2.86671643126967
2.81972195725863
2.86409137054451
2.91840467386978
2.9676183162928
2.90596837843417
2.94922805372663
3.0204631527724
5.40451869054211
5.079631311073
4.97156909555794
5.32123154467287
5.49862816989009
5.17068551906365
5.05324856751255
5.41124939385024
6.15383749262755
6.32329485598739
6.43857751874634
6.20160203721295
9.45830251649627
9.53428978870341
9.80659736686984
9.65790062180447
9.8359964497521
10.0793547646559
15.5773122145996
16.264849192993
27.6631070842787
170.2449101717
141.642997013816
23.5882974124328
21.488390339536
136.145570406523
155.228130562387
22.7850358230487
22.1679728838578
150.576983216518
149.663656700261
26.8602214902151
25.4911978704726
137.594507596679
128.42189500351
25.1447582522819
30.9099383239318
157.122778209158
143.138589395528
31.6803521443544
31.5721687726482
134.242821718239
102.88863595922
27.2763439498561
27.0587535913002
102.869201505879
96.1115630116791
26.0472885916435
26.2909151147024
104.335038145087
101.966124450163
24.9622393717071
24.5955765845957
107.505959466501
103.616097494669
24.4485248277476
22.2269692571927
99.3072246078328
99.2652000360665
22.3309103603522
18.6047041299731
74.5492266578984
66.3293854597222
14.5075470662664
10.0587297972963
53.2641813328298
47.117491281451
9.07557491954595
8.65801029511741
44.9575964647789
6.22438650271318
9.53342673401094
9.50635460752905
11.1293590811809
55.3036010044748
58.8172910077039
12.1190733690355
17.4159746645511
68.3321913033108
63.7804115769162
15.9388823195277
25.374132747891
88.3411714876359
78.1526041635623
23.4766627678967
18.0529432966806
58.57871031725
45.8365907397138
14.3860666266596
10.0565157807372
35.4585482108131
30.5213867404817
7.91794442034414
7.25512701124744
29.1253091484048
30.4237226013161
7.97518548672063
8.41223133262339
35.6316145313326
48.7941721947762
12.0538622937431
18.7364608197445
71.8858705395028
91.4211747291661
24.4679169894363
25.8259422440796
119.801670909063
114.071488659213
25.2039628460831
25.4792628534408
110.630218305453
101.296279214482
25.0600189828359
22.8848103267134
81.8863521215473
59.6719958168917
14.4132382736828
15.2728797960494
60.5977317543361
52.932023825899
13.582415656343
15.3317333423111
57.2587810116941
48.3277924485127
11.4636279470439
11.8076699491817
48.8828268236305
38.5779944614281
13.4623365263701
14.5373673479402
37.2998824264734
44.4346803625751
17.2078888874777
22.0944298010586
64.6760677732201
84.2366886457737
22.1333151348079
24.834449639497
91.1220273614522
83.3939877518636
24.3613118116578
29.69823859512
33.5888590258837
133.299571179619
92.1603318165367
88.7908113561458
126.64528267312
29.9629340417235
26.9009288624909
18.0122106542788
17.9064888170854
13.5927773475467
13.1371912818538
8.72038754255177
8.47779509884253
7.83038791403568
8.31001663573808
6.98639581594786
6.55936293361277
5.33598882893932
5.67646670169722
3.92719753747948
3.79801782438188
3.6650335105248
3.77303224834466
3.54384325497478
3.44504047085233
3.21880315012536
3.3061710579648
3.08061104653222
2.97686527094041
3.04420339752013
3.12610728801807
3.25624515458957
3.14609246915461
3.23049375852833
3.33359432632196
3.46827721289608
3.31605415403035
3.3470230772607
3.4690185412629
3.53707628314239
3.36304204208649
3.27829522842074
3.40859479781485
3.12011876542197
2.99408231310897
2.82749942030578
2.94298603576154
2.52078810579656
2.47208547152192
2.26305129633317
2.35477814093423
2.0477166072112
2.00367418979841
1.85921653276998
1.91355532490303
1.7595637230572
1.72508842435605
1.65846984013237
1.70396165086044
1.63642878872396