/*--------------------------------*- C++ -*----------------------------------*\
| =========                 |                                                 |
| \\      /  F ield         | OpenFOAM: The Open Source CFD Toolbox           |
|  \\    /   O peration     | Version:  2312                                  |
|   \\  /    A nd           | Website:  www.openfoam.com                      |
|    \\/     M anipulation  |                                                 |
\*---------------------------------------------------------------------------*/
FoamFile
{
    version     2.0;
    format      ascii;
    arch        "LSB;label=32;scalar=64";
    class       volScalarField;
    location    "600";
    object      p;
}
// * * * * * * * * * * * * * * * * * * * * * * * * * * * * * * * * * * * * * //

dimensions      [0 2 -2 0 0 0 0];

internalField   nonuniform List<scalar> 
207032
(
83524.0172519795
83537.6429422458
83559.2517456709
83536.6465303131
83523.1878389293
83513.2885621802
83501.3357827561
83492.538300694
83496.4888058377
83507.9598871006
83508.0329047454
83504.3528003746
83504.6180470976
83512.8825076864
83512.4341263164
83520.672662485
83522.1879844253
83521.1734705826
83521.4927478517
83531.7614942206
83540.0879775587
83544.5619885488
83531.7226784571
83523.254964742
83523.4866055454
83530.6790250233
83530.0039227439
83532.1376554632
83537.7334933312
83537.097267504
83532.5489656621
83533.4041119045
83534.9014893828
83533.6479663187
83532.2313773656
83530.4047360951
83536.8679596242
83545.9999118746
83533.4779768638
83533.448046166
83546.5381360873
83531.2379729412
83528.7392451669
83533.3761745312
83548.3406893546
83490.3727895989
83502.9155411921
83489.1231222843
83466.2096258475
83471.4841214129
83486.4875922882
83484.6456557462
83459.8631473536
83555.93448772
83554.7779749744
83518.0793585144
83510.3195141328
83502.9356561626
83502.9465889198
83503.483681499
83502.9134704282
83501.9653190093
83503.5458433156
83497.6310107368
83497.404582445
83491.9805737134
83490.5085611904
83472.5896130106
83489.1677737786
83508.0930304878
83502.2388790415
83523.4324511257
83563.7118192809
83547.8404930449
83527.0767318342
83510.4003024263
83514.2803326624
83489.1566278031
83479.0041686311
83484.9342112056
83491.6278105828
83496.2000745783
83495.0459943172
83495.8088113499
83497.3868834757
83497.4628795652
83497.0704289137
83498.4013233425
83498.2438611003
83500.1590834717
83500.3973298477
83498.7284001061
83499.2323649017
83502.3325413576
83502.520904636
83509.2804153847
83508.2529192221
83516.6825683499
83516.2689254459
83524.8908431302
83525.9232522235
83533.8788364124
83533.0842944126
83540.9955727468
83541.4701017307
83535.9774762816
83535.3784992376
83541.6134212334
83542.1181507845
83537.1065576904
83536.2838047131
83534.0091180085
83536.9918631825
83535.7791859991
83533.6578773881
83523.7357023321
83533.1360848426
83533.5035806831
83537.4748312292
83553.1503699799
83536.6575508455
83537.6287782876
83547.4906044701
83544.7696382302
83539.8893320006
83539.6762082473
83541.7958311049
83539.0222724726
83538.7144068353
83537.7074949378
83537.081697863
83536.3330360586
83536.0760173822
83532.5542388521
83531.262721878
83529.901140005
83528.7787824715
83527.4208255618
83528.7515689882
83529.4322697304
83527.2554227236
83524.69602827
83531.7819010699
83515.5772614404
83519.777205263
83518.677294799
83508.3703591891
83549.1003407774
83513.3330323376
83506.3184157496
83502.327465555
83499.3929029405
83497.328973429
83491.0277285031
83489.0179378214
83477.7937718931
83487.8149545836
83499.9123095704
83507.3642593647
83524.8601071337
83504.0096536884
83495.1801690366
83510.6996486308
83499.2662049316
83495.8572630625
83497.2614523307
83498.3963309462
83501.5612759003
83499.7693381923
83493.2414501544
83491.0595869872
83493.2480609774
83492.772440448
83493.2193646033
83491.6642607854
83492.6706173914
83493.2045626079
83495.4688188207
83503.4092417263
83490.6513267206
83489.1114998984
83498.6630237205
83493.1415043558
83490.9417573442
83491.4858773745
83492.1202423627
83493.6013476187
83493.2668464327
83495.6064842359
83495.8144206916
83497.9550434484
83498.042896227
83498.6167470896
83498.5409638151
83498.9614870417
83498.8796576574
83496.5441460964
83496.7243117996
83496.8596434273
83496.6860959677
83496.8443310722
83497.0196758518
83497.1324147518
83497.0073310097
83497.0384237661
83497.3997168454
83498.6276096584
83498.4430947982
83503.6222612291
83503.479580099
83511.4557821756
83512.1925162908
83518.5182760445
83518.7590001148
83517.500862483
83517.1859861659
83525.3776780886
83525.9514289079
83535.5664445357
83534.9692255193
83542.0018564726
83542.2897830286
83550.0823920833
83549.5421986714
83554.5484614254
83555.1258245904
83550.2054477801
83549.4852008549
83552.8400399103
83554.0632220707
83549.9495752873
83548.906539078
83543.5733508356
83543.4359260868
83541.645382338
83542.1986754273
83541.8426925559
83541.3720856657
83544.1985737112
83544.1445089042
83539.0862357139
83535.6848372082
83539.1422498359
83540.1839549163
83542.9408152208
83541.558223385
83538.6610653552
83541.8383306745
83539.2257750542
83539.0642892325
83531.2468179945
83537.5629845445
83542.4635873687
83539.3016146179
83531.2367599168
83518.6880391816
83504.9457847417
83489.6161389614
83481.9443075346
83473.7309105358
83477.0973720993
83472.4165944007
83479.8858204936
83492.2925863689
83506.6898977674
83502.6822142399
83493.4738680172
83497.1050319254
83493.9645624606
83505.9088954478
83503.392836602
83497.7145896799
83484.8091148545
83489.1991029348
83494.5999894197
83493.1386183347
83491.3450957549
83491.7521112227
83492.5052018376
83492.3032658075
83492.7206973822
83491.7296133073
83491.94802857
83490.7334879701
83491.200683017
83484.3790772175
83492.0127947965
83489.8283967633
83488.0642293598
83490.1409290716
83490.6086377111
83489.5082888823
83489.4905925786
83491.4743641332
83491.5092690748
83493.6107876049
83493.6740164295
83495.7223602554
83495.5110631282
83493.5193097967
83493.6738378686
83494.8135046198
83495.0276728316
83494.8590072321
83494.6664632754
83493.5296014647
83493.5741050776
83493.3066493601
83493.1918648262
83491.7833923445
83492.0751095286
83495.3090302379
83495.0943339079
83496.7343416872
83496.9633895169
83501.6620502151
83501.8192920013
83511.4512290973
83510.522825926
83518.4030462462
83518.1719863332
83518.9894548106
83519.2276676201
83529.7455274728
83529.3940166852
83527.8608165103
83528.2148756682
83539.6935743547
83539.1552376773
83549.0409836009
83549.6864802251
83546.4783128324
83545.8392279557
83553.8348518054
83554.1788801724
83561.6156773035
83561.3703298674
83569.292727458
83569.4719922266
83562.8950127118
83562.3008756296
83567.7147517768
83568.1162828901
83560.84245864
83560.1731438656
83565.0075530776
83564.9145676335
83557.6306395241
83557.733732564
83551.2754969184
83551.7273918309
83546.6933243141
83546.1369001701
83548.6452272691
83548.9998463319
83546.1344119933
83545.8005860197
83547.0503751009
83547.1024813179
83544.6178508975
83544.0837454408
83541.9127033119
83543.9415626959
83545.7396634555
83554.5236982159
83545.0601453417
83543.7236308563
83545.0769725266
83543.9199117828
83544.1526705044
83545.2806898681
83540.6798995219
83538.4681090766
83529.6129199782
83538.0291061983
83543.0058620206
83543.3340281532
83542.4007031915
83542.7045540095
83545.8308957359
83541.8472993742
83537.8299233195
83533.0651555432
83535.481593435
83536.6846987892
83533.6491677791
83531.6119142064
83533.8322605276
83537.2744953391
83540.3228338047
83540.8477430373
83530.7015616877
83540.3923396205
83534.4817550849
83531.0335263739
83531.4880099901
83530.1156083697
83519.8909938887
83520.4362393326
83522.3134610567
83521.4327889861
83523.2610915311
83526.9626086231
83519.9246739342
83516.9601034199
83521.2833668317
83527.1397906794
83514.5334562087
83517.3852895125
83516.2296249269
83521.8867239956
83524.1045009304
83515.3539110583
83515.2154458348
83529.9808529457
83515.5696457759
83509.7188867065
83504.8454860688
83513.7698964855
83503.3802687983
83497.309542963
83485.8378318109
83483.2630780516
83480.609110077
83480.2204187154
83467.6603528041
83463.6026485321
83443.0208397168
83456.4758669197
83438.8431163561
83432.7690937162
83468.7429535338
83468.8592498117
83481.2665905949
83475.9219604792
83493.4468491137
83490.1278193427
83491.5973513344
83492.6477356774
83489.1997241386
83488.7544881451
83491.2362439949
83492.2403111834
83489.3902010615
83489.2240110275
83489.0892527138
83488.7917744401
83484.7506305204
83488.5868535051
83487.8261432612
83487.2668561684
83485.3601342946
83485.6909355186
83485.2976922642
83481.9843059369
83487.5472003481
83487.6969412372
83486.5551844836
83487.1788788184
83477.5757126774
83482.6761914503
83483.553403824
83482.7550619617
83485.6454106452
83485.8461970357
83487.5649923043
83487.5078211393
83489.324861006
83489.3766045168
83491.4965536384
83491.5254129615
83489.0405792074
83489.3864080814
83492.2045017552
83492.0011929464
83493.3551238913
83493.7243504359
83494.7451406586
83494.0352515074
83493.3369989296
83494.7230888255
83489.2824177265
83489.52562299
83488.6485068207
83486.9707386717
83491.8541075456
83492.4305375929
83496.2985201994
83496.5588831033
83506.5702070107
83506.023409755
83512.0886047795
83511.7418378859
83516.0023871194
83516.2384128555
83526.5668841664
83526.0545029049
83528.6824779769
83529.1121437349
83543.3604151582
83542.9457091431
83542.7893908896
83543.3642017027
83557.1058269136
83556.5956057847
83553.8081650263
83554.4116899265
83564.7174273804
83564.3640650928
83559.1434750387
83559.4505611482
83568.7724562467
83568.5726528555
83577.8877350893
83577.9757640888
83587.5866471761
83587.665001551
83576.9980920568
83577.0146007224
83584.6895785247
83584.9287094875
83574.392609967
83574.0840335761
83579.9501574003
83580.2888683576
83569.5700490332
83569.0718987021
83561.1610700265
83561.486610311
83554.1956051106
83554.1420490504
83556.1627926895
83556.2709621216
83549.490465811
83549.8225483471
83549.2698399031
83549.4921825788
83546.0523882059
83546.1944226012
83547.2937392509
83546.6157517261
83544.7870755785
83546.2333388772
83545.508493817
83545.5241154984
83544.9193466094
83544.2004139749
83543.2393399592
83543.6701430411
83541.18797105
83541.7070024297
83546.6773939136
83543.4384905965
83540.7522581783
83543.7456757037
83540.8806682257
83537.7274681177
83531.5359181744
83533.8927393227
83523.5399688231
83529.9378211849
83523.91418176
83520.3464532872
83515.3961947622
83515.0054678128
83502.6915620407
83503.3737690878
83510.0813127508
83509.2267587405
83512.6300142083
83513.3115965919
83505.0927511069
83504.2154513784
83509.4300646444
83511.9705055156
83518.6983558709
83514.7128556343
83505.4629233912
83505.5875490316
83503.3273138331
83500.5837366128
83493.2774056189
83493.3096429213
83487.9361697652
83487.9275647843
83478.468779703
83477.4741476111
83467.1876218794
83466.9942530486
83455.1867235073
83457.6268855196
83450.6796905877
83447.535181203
83429.5767555371
83425.8069699996
83429.6472100656
83421.047507086
83407.8575392106
83408.8534619014
83385.1024629764
83385.8089923526
83429.0025107441
83428.7164913458
83458.8974396261
83460.0164351784
83474.5778734492
83472.1635785892
83483.0543010807
83483.6069093868
83480.4429833534
83479.1354776821
83485.7616651062
83486.139777042
83483.9673831694
83483.4836238186
83488.292979086
83487.6439643622
83486.4390501588
83487.6028308708
83484.0426010382
83484.7601651733
83483.6831709722
83480.8987556925
83480.0873101095
83483.3334651117
83483.2769095399
83481.5753929926
83481.4151925278
83490.8466745832
83487.0492427451
83485.0093397354
83487.9774077613
83488.9507095446
83491.1430951786
83489.4196582676
83487.5683470356
83488.3699169572
83502.8254508527
83493.2462692561
83504.4994819075
83533.6120432195
83538.9466943415
83498.1620112887
83474.1346039789
83447.9074055426
83461.31512532
83478.7191762306
83482.5066196418
83479.0668030905
83475.8038119657
83469.0778216493
83480.0227804117
83483.3078490111
83485.2267822608
83481.3954700779
83464.2832366081
83477.2645438644
83477.103275501
83461.6488925609
83486.2573352244
83487.1492266992
83488.6665540463
83487.4874978226
83486.1824099706
83488.0752390845
83489.0249675076
83486.4299494705
83490.4320646183
83491.3631020777
83490.9302957985
83490.6940167438
83494.498097534
83494.8294216461
83501.3994670654
83500.5082218839
83507.3647252875
83507.8796925474
83516.3613408715
83515.3833210034
83520.2556448358
83521.0117298088
83532.3921209282
83531.6343282826
83539.8610526089
83540.2394462894
83561.0025256283
83561.1128919012
83565.1495240876
83565.1257715172
83559.2624993953
83558.940279913
83571.8946137353
83572.4571279159
83568.9598375317
83568.656147274
83581.3428402884
83581.4479643634
83575.4414129226
83575.2300234856
83586.664517299
83586.6731954931
83598.5318421735
83598.8995703274
83611.5171232162
83610.7329488361
83597.32593015
83597.71976146
83606.9998121923
83606.7227948897
83591.9046212587
83592.0982200155
83592.7325941945
83592.2305244434
83594.0883533361
83594.1710150043
83587.4408005312
83587.480239283
83581.276904802
83581.3420836459
83575.604009162
83575.5953644516
83570.7493140595
83570.8344335196
83566.8943005343
83566.8054974095
83563.0922305185
83563.1626811995
83560.104309726
83559.8185372413
83560.2225981321
83560.8924148697
83567.2187940028
83566.6809304118
83569.5517688862
83570.1440818117
83575.9822260943
83575.4732527392
83579.9930393888
83580.5431778989
83588.0265936808
83587.7424113301
83587.7570540372
83584.7516599279
83591.5474155089
83591.8511006247
83590.0940742892
83589.1499506977
83588.5435880408
83587.2554979163
83582.7120502804
83570.4899698307
83556.9553962382
83532.7387365815
83522.6516793945
83494.7594130894
83463.8632898159
83449.9833066751
83428.6041994736
83422.3632222278
83414.2556336245
83414.4003232419
83448.9481323683
83451.2948644907
83470.4404557885
83467.8538979041
83463.7098516315
83466.1144510196
83477.4527223561
83476.0619420978
83475.2794213326
83475.833252191
83482.1564649941
83482.0541982673
83481.6094296462
83481.2094650534
83481.6740348231
83476.7591307502
83475.8714301219
83482.2584658474
83484.5972596082
83485.5691361674
83452.115361331
83476.8756231988
83489.2785095634
83474.3906800662
83462.9928418119
83492.187910275
83499.1510121943
83484.1897355089
83521.4431771845
83507.5951904044
83505.2567275293
83506.8914324051
83505.4805942918
83506.0919679299
83477.0284504373
83494.3961907544
83495.1855361543
83483.9615805165
83529.1998943229
83523.4220237934
83515.3580865928
83514.8380601049
83508.9711246831
83509.6795071145
83513.6628502324
83512.7885559375
83523.6705135343
83524.2677196405
83533.8921357098
83533.6646239042
83539.5174647216
83539.7287384626
83548.8075555009
83548.4092939453
83557.8300855542
83557.8962858024
83570.9230824668
83571.1409563898
83581.8912031252
83581.7972991852
83588.4779853476
83588.4141687134
83590.3434159898
83590.6107829349
83590.8444432471
83590.3400039464
83586.0993200436
83586.3898204857
83602.7908914768
83602.9110410562
83595.5577413615
83595.388563769
83610.1567475317
83610.7492538608
83626.3833478694
83625.2771765274
83640.135124256
83640.6734106928
83622.908921172
83622.528316376
83623.5337206432
83623.9115509737
83626.7005567789
83626.7023528249
83617.1756491687
83617.123819328
83609.1930278089
83609.1834759413
83600.6908824404
83600.6868473454
83602.8018467264
83602.8177401716
83596.3357449369
83596.3743208468
83588.5593754043
83588.7112726973
83582.8620115371
83582.8456360053
83576.4366716187
83576.6397254326
83571.9802114444
83571.9058528013
83567.3755917753
83567.5284715538
83564.0644822661
83564.1007973051
83561.9076614727
83561.4163516014
83560.3058137476
83560.7557995737
83555.1720874322
83555.000887793
83555.1513851533
83555.101373778
83550.3358557668
83550.6605886608
83551.261720984
83550.9484714242
83546.6844968884
83547.4793931408
83546.2938832629
83545.4569592045
83541.9722550812
83540.7069323236
83542.3293855883
83543.3730401878
83542.1240435689
83541.1284986947
83539.6058182587
83540.8510975076
83538.0376316761
83537.2082986166
83538.2553218184
83538.9505577359
83534.9948977165
83534.216302519
83530.2083336673
83530.9554517813
83533.6292493486
83534.0219198986
83525.2693010929
83527.0205605531
83518.0162168737
83509.3468884292
83525.789591755
83524.4592917611
83529.0664696412
83522.5159245702
83506.894725517
83491.5377440497
83490.8408994034
83491.0312178888
83500.2194887165
83499.0202674292
83487.0963077189
83487.2543576771
83495.2876898598
83494.7649130651
83499.8526477131
83500.2815338302
83499.8679010005
83496.5033490213
83489.6101666189
83486.0205447084
83457.3993970853
83439.3917792779
83393.5589122042
83391.2691523524
83402.9119966812
83357.1214122693
83354.412985088
83332.3532997763
83328.4962972708
83324.8339369876
83329.5447717198
83361.3570885554
83356.4019808412
83339.0216250782
83343.3147968695
83400.9752921557
83402.1695922031
83440.8605850892
83442.2376131804
83433.410919666
83431.4695425554
83467.102078424
83465.4400592274
83470.924971529
83470.3471212303
83487.5579039456
83475.4791234697
83476.4074263091
83477.6187286734
83488.1153458696
83480.3234455445
83483.2045643851
83484.2455318079
83467.3691733098
83481.386243131
83487.7758526637
83482.3171237396
83526.8374602364
83496.900317173
83500.7985182909
83493.5722040856
83532.8939023774
83517.6487942954
83524.0970149123
83550.6926873959
83544.8563115967
83520.4377046401
83513.0060937694
83525.1153854789
83516.5890282761
83516.3768556894
83512.5311861878
83512.0874224454
83506.2659942005
83507.0671555121
83506.8468637268
83505.4854513964
83507.9420504772
83504.5816140576
83500.5028073967
83502.1731584856
83503.8143147277
83504.0250111446
83503.1447626078
83502.7948919764
83503.7588452687
83504.6278229934
83507.0984757282
83506.010988961
83508.1066006073
83508.9006754588
83518.8816837954
83518.3025287752
83525.9369986442
83526.4410210172
83529.2685604156
83529.0576578522
83538.8643917094
83539.0164318845
83549.0239659691
83549.0210672627
83559.2142591621
83558.9124111464
83569.6504772344
83570.26992853
83585.8322542912
83585.2385767271
83599.89703035
83600.2230405915
83608.2062950384
83608.1012189008
83611.0864772382
83611.0613025558
83609.697239907
83609.7841984054
83628.9394488219
83630.2023137009
83620.9690561866
83619.9910605043
83637.9968774358
83639.7650676084
83656.9902854278
83655.951886903
83660.3970345641
83660.9679126297
83665.6321679075
83665.6367005768
83654.7143604341
83654.6507275383
83645.6643578644
83645.6411318115
83634.9271591563
83634.7935887655
83637.5386491168
83637.3800400446
83629.5017455483
83629.7573337507
83619.1873201391
83619.1285827153
83611.7536497311
83611.8583489397
83612.276591789
83612.1394573763
83603.7280450805
83603.6788867661
83597.0881367704
83597.0996577344
83589.8002315692
83589.6846496499
83583.7919428697
83583.8210862815
83577.7085904658
83577.5435595875
83572.62508956
83572.7405632883
83568.0797142388
83567.89033968
83564.0543508627
83563.8705811331
83564.1177093921
83564.1852818987
83561.3820687542
83561.0197137987
83560.3044140117
83560.4503880791
83561.1571828922
83560.8728303584
83560.0529142025
83560.13277115
83555.239248996
83555.2529365244
83554.1513250914
83554.2198736564
83549.8879937817
83550.2246616389
83548.7367141319
83548.4473792094
83544.0936334916
83544.8755401876
83543.3509008802
83542.5947843062
83539.6369255355
83538.6196745981
83539.9497484674
83540.8286278541
83538.7943453567
83537.5778414689
83536.7267329174
83538.0019749056
83535.0279273077
83535.8175933783
83534.5305492396
83533.6847092471
83531.3753296884
83531.6417496788
83534.8636308736
83534.6460860455
83536.5689980732
83537.0159626906
83533.3557353609
83533.413155869
83531.8398262875
83531.0756214465
83531.2708874431
83530.8405356231
83525.5924665615
83525.9914446749
83525.6747499154
83524.5218891186
83518.5014382425
83520.8714650229
83506.9418294543
83495.8855028809
83488.8658062769
83494.6164682839
83479.9399237886
83479.0421403439
83462.7590772759
83463.1363706679
83476.8349117403
83477.1587065963
83474.511695434
83468.1476033023
83454.1129810559
83446.1975174391
83440.7781493666
83411.508280106
83390.5284923582
83358.8063514137
83308.9080048503
83318.8314341399
83326.5750487324
83321.9208892849
83312.6388437273
83302.1956476271
83303.6878530223
83288.2353834368
83292.5921625284
83313.0354770056
83315.2943494875
83348.7475061407
83342.2549392969
83380.8583660468
83375.3778536199
83383.1260860113
83389.2295701009
83386.6203037913
83383.3098199901
83417.5397437478
83416.3693745668
83435.6298538569
83431.7821474268
83461.7169447398
83458.8422406441
83458.4995276475
83460.5134515918
83465.9642552875
83462.0480364695
83463.4183792277
83465.3245022494
83485.4522913137
83480.1930616045
83488.7855240686
83499.3171723373
83492.7332612403
83485.8582610028
83487.7528892389
83490.260116753
83487.6748496244
83491.1210483072
83495.1335104146
83491.3102469177
83514.0437055509
83505.69363284
83514.1585146783
83532.2587646632
83508.213527992
83505.1642546082
83500.6124855816
83509.9031933426
83502.4535370334
83498.024498929
83490.597730463
83488.4781273206
83495.4045873981
83494.6429612033
83497.8587963078
83498.7386662352
83498.2450739689
83497.7157106112
83490.180290185
83491.2483037726
83493.554003741
83492.3882547171
83499.39454403
83500.3239765395
83508.4279573492
83507.9249169673
83518.7047823768
83519.2790722561
83532.0763207185
83531.9411728644
83545.0907710965
83545.1023349219
83551.5822994045
83551.7149709909
83557.8010713378
83557.3426032523
83580.6812396858
83581.8135107536
83601.7711026367
83600.2812751946
83618.4076776946
83620.1231741464
83629.8568753166
83628.1475458739
83631.4895918697
83633.0109336833
83655.7420907675
83652.9164929887
83648.9789217814
83651.3161561349
83670.7876760721
83669.2023250071
83675.374637019
83676.1238281996
83681.6787037151
83681.5984424952
83672.4718444134
83672.3897455699
83674.7781975538
83673.9774830914
83668.3290944559
83669.1409750996
83657.0505881706
83656.6754423308
83648.7911263227
83649.2541774012
83648.5159283499
83647.823906253
83637.1812081734
83637.5907048975
83629.6675693086
83629.3042264453
83619.6165975783
83619.762803526
83617.9188798481
83617.7289430103
83610.5651538647
83610.7670995448
83603.0187393025
83603.0004196262
83596.5230320978
83596.5794421117
83589.8805153805
83589.891231269
83583.9412085075
83583.9853263317
83578.1448587484
83578.1815548819
83572.9923705043
83572.9662718543
83568.0897231103
83568.3047414169
83568.2393868101
83568.0709596885
83564.0474596669
83563.9100562802
83563.9212293235
83563.9438651467
83563.5026749538
83563.3959380246
83563.0552396429
83563.0602337768
83560.4438014859
83560.1550597591
83559.000167599
83559.0528105587
83559.0450140373
83558.7460290177
83557.4512491076
83557.4962802624
83552.7837724542
83552.6459869405
83550.9177835132
83551.0523999641
83546.8409783271
83547.1387035809
83545.1026309916
83544.8446334751
83540.5735059674
83541.2793637246
83538.44759404
83537.7936376374
83534.0438374827
83534.6637136923
83531.8745577588
83531.0486013467
83529.5850332778
83530.5301502432
83527.5441109571
83527.0663316024
83523.0669050765
83522.8878166248
83519.497370066
83519.77008589
83523.6497860753
83523.5828969445
83527.7014315666
83528.1719952198
83522.990003584
83521.9147717169
83525.9927048431
83528.7852093944
83525.1915904371
83521.3106550568
83516.6148929051
83517.9563339732
83540.6068659179
83527.117734566
83520.9111673856
83511.4350025922
83532.5278030655
83524.8978487889
83521.5793268743
83515.7295939355
83520.7919799514
83528.5894282234
83516.4490996861
83517.5463976009
83510.0634049522
83518.9155204547
83506.773548108
83500.7764044305
83486.4400154006
83485.1687701192
83483.61648987
83479.7111279022
83466.4421042749
83463.2886799549
83446.9307601788
83447.6596424821
83436.3635665969
83436.5662705805
83450.9569009573
83452.2274884841
83437.1201805449
83432.5461862458
83433.5611899378
83427.5363336283
83407.403811734
83411.4085330571
83406.5344626079
83400.8523089625
83369.4987046081
83367.7979211856
83346.801764779
83346.4630134342
83333.427814064
83328.9476086948
83303.8467086091
83310.5473375166
83308.9158216291
83307.7098426181
83325.8851798985
83303.3008688211
83295.6888022928
83308.5039780261
83324.8183237824
83310.3629392793
83301.2731291421
83311.3930112299
83302.3027408257
83293.8667754544
83289.0909782989
83300.5337181713
83291.9416545916
83281.9657326599
83273.4596780841
83279.5823188803
83292.1395538939
83286.4107105024
83313.0822725126
83322.6921468934
83321.144115671
83330.2479249957
83327.2760872403
83317.508568021
83316.3603730252
83317.2543903893
83354.2891381444
83354.5199066537
83347.875861334
83348.1930889178
83341.6370973545
83341.3539403349
83334.7413993218
83334.7891451711
83380.7685797665
83379.8314532416
83415.1021618253
83416.243502848
83442.6129130077
83442.3247131684
83445.2858846739
83445.5578851436
83453.3662576328
83453.8732551071
83460.1396888363
83460.1857272649
83468.6058501834
83469.4841792448
83474.4858361349
83473.9389519305
83482.6896517283
83485.5208953487
83484.4546778174
83485.9589548887
83488.898958149
83487.6026061889
83478.5746963947
83480.2651434842
83484.2847487425
83485.7843082096
83482.7767909894
83481.3540513113
83468.3227416343
83470.1081983155
83473.6858054778
83471.9347053135
83482.264542466
83483.3842860869
83497.0942528097
83496.3735864993
83514.2025137059
83514.471949659
83535.4954159929
83535.6029326416
83533.3178865752
83533.0412387076
83560.5317669932
83561.2867495407
83591.6595509338
83590.25961582
83614.9391084349
83616.9427625267
83639.9134923113
83637.2255798587
83649.326138005
83652.2758761664
83672.6108668393
83670.3860840545
83674.6513782299
83676.6846921421
83686.2260254507
83685.3684753154
83689.8466926602
83690.2486465736
83686.0931089964
83685.8738149875
83684.8070036936
83686.3425131067
83684.3834306342
83683.0068668897
83676.7554739068
83678.6583870571
83671.9233572773
83670.4928474195
83665.9016467384
83667.053874674
83656.3919635489
83655.5583077209
83649.8023410818
83650.5774977707
83643.3974357314
83642.7503419607
83633.5686424263
83633.9791280779
83626.5140015231
83626.165526952
83620.8906821166
83621.2554631094
83614.1239948908
83613.8836731008
83607.6441815951
83607.8601136152
83601.1604464343
83601.0558925892
83595.1048154008
83595.1973678439
83589.1041022436
83589.0779512013
83583.3986347227
83583.4384112645
83578.0007147103
83578.0136147822
83572.9112880687
83572.8837267443
83572.4488528171
83572.5021485114
83567.9879656244
83567.7932802378
83567.3200541384
83567.4587802743
83566.7732736052
83566.6096187116
83565.7255882726
83565.8195592713
83562.1893891925
83562.2741598774
83561.516352845
83561.5082236492
83560.4225270981
83560.5113998184
83559.563262267
83559.5513906073
83556.9736310491
83557.244557998
83555.6271630582
83555.5934097849
83555.0040940805
83555.2841141376
83553.6563439136
83553.5900710586
83548.9618887524
83549.2352119897
83546.7751560187
83546.397062195
83542.3560627323
83542.0981374049
83538.387207555
83538.6058407402
83533.5240276853
83533.4024597504
83529.0388157586
83529.6360506729
83526.7620281205
83525.8895711338
83524.2670634982
83525.3804163662
83522.3278639837
83521.4583072674
83517.1765624056
83517.334685616
83513.7666515055
83514.3322179159
83512.7077410556
83508.8951882257
83514.4492747099
83515.0913312613
83518.3634618645
83518.0353297596
83511.7504031234
83511.8101827783
83506.4531970944
83506.6132990612
83509.518027972
83508.7902043483
83501.7432788361
83502.1581406468
83508.9706865825
83509.6938759636
83504.2353935764
83502.608090868
83510.7335342229
83515.8051379724
83504.0097558896
83500.2104040893
83493.5338678453
83499.301154959
83490.2645381289
83487.1211417169
83478.9549074772
83489.5852290992
83466.8261434492
83468.5592111723
83452.7843957515
83456.0350584112
83431.5231930056
83429.6527098954
83415.1205385358
83416.7660291439
83399.877965388
83397.1098755759
83421.1070363349
83423.5761026886
83416.0505504737
83402.8395546075
83373.3573678532
83379.7010635432
83381.4465769706
83357.3209611485
83355.1703771338
83331.4546565316
83334.6911286419
83324.6317230409
83323.9440414261
83306.6937837763
83303.3074285129
83308.1115057882
83301.8925280776
83298.4771950189
83306.85431444
83288.9112720418
83285.2832547711
83279.4849708006
83281.1499801045
83282.3608094189
83277.3996377662
83286.5392151117
83292.4183017155
83286.7494614857
83281.0184403479
83277.8047793968
83284.2137560094
83279.1243316224
83272.8629215672
83265.9193773664
83267.1035340797
83262.0002128282
83262.2121831139
83257.3624159756
83257.221538153
83263.2993257489
83260.7595784195
83264.6638163937
83265.9244689965
83268.0738576634
83260.310151445
83255.9267595052
83252.4603243263
83287.2287095229
83283.7567421588
83270.5079461004
83272.8347223478
83253.6466170959
83249.1509190286
83228.846560171
83233.3787757423
83284.2437631744
83280.8859434287
83266.2497115249
83269.1224438703
83251.0310572223
83245.453348617
83221.5419166843
83231.3123186568
83211.0102552047
83199.857279713
83181.586865641
83189.3614937803
83217.0227229628
83211.0831310737
83208.1685263273
83210.1234959726
83207.8207558138
83206.5938804226
83206.8180540402
83207.5802215385
83208.2925491519
83207.6051978207
83279.4021542001
83280.890515343
83281.7237473261
83280.3497425239
83283.6565425753
83284.0311176502
83309.1762037329
83310.1643207704
83316.0604198395
83315.518065005
83325.3828802786
83325.5190785065
83338.6157844543
83338.3517816363
83355.4397729367
83355.7622790352
83377.1798512114
83376.2947408255
83399.2602031935
83400.432084761
83425.8462252031
83424.278103952
83447.5789285741
83449.2917898243
83471.974746067
83469.9806483306
83487.8542808069
83489.8743127177
83505.9506392516
83503.921034979
83515.4247497452
83517.220329719
83528.2145047843
83526.7232970529
83534.6996439349
83535.6876046018
83546.6393456254
83546.2243214917
83559.3210102143
83559.3060824962
83577.920471593
83577.9296986595
83602.6162440551
83603.0862068834
83625.4399338388
83624.4025623437
83641.7536362736
83642.9158891867
83647.1141413303
83646.0207913601
83645.8581945121
83646.7347257774
83640.5523892525
83639.8214723146
83634.3827864589
83634.999658409