/*--------------------------------*- C++ -*----------------------------------*\
| =========                 |                                                 |
| \\      /  F ield         | OpenFOAM: The Open Source CFD Toolbox           |
|  \\    /   O peration     | Version:  2312                                  |
|   \\  /    A nd           | Website:  www.openfoam.com                      |
|    \\/     M anipulation  |                                                 |
\*---------------------------------------------------------------------------*/
FoamFile
{
    version     2.0;
    format      ascii;
    arch        "LSB;label=32;scalar=64";
    class       volScalarField;
    location    "400";
    object      k;
}
// * * * * * * * * * * * * * * * * * * * * * * * * * * * * * * * * * * * * * //

dimensions      [0 2 -2 0 0 0 0];

internalField   nonuniform List<scalar> 
207032
(
0.015761963696803
0.0167961845549018
0.0219875480905058
0.0209311043832875
0.0164764121969596
0.016398780312831
0.0205332683323656
0.0198798189135866
0.0195110098467393
0.0156667842696608
0.0160019784503198
0.0154895043512539
0.0153165034931908
0.0153811954270733
0.0155490293497984
0.0161354361024622
0.0207216485978239
0.0205281270370467
0.0157371829939132
0.0158303023616543
0.0218653748801433
0.0218089337389525
0.0162939764682137
0.0156320155732896
0.0154429866256566
0.0155156596748102
0.0157280319696829
0.0165271998130805
0.0229435513909895
0.0230974792620166
0.0159825063000418
0.0168294036029474
0.0242155995260092
0.0240203906900797
0.0173595380468515
0.0173439492379178
0.024759440483888
0.0233478409872982
0.0169338862963679
0.0170335165410144
0.0230869683569182
0.02230878496577
0.0170935533650659
0.0169634428030887
0.0207073462527787
0.0194003682352899
0.0165805737676768
0.0160014064559879
0.0184433321003928
0.0170955716730414
0.0154593849438484
0.0151585892438195
0.0163352321029411
0.0157529017793149
0.0153139956454139
0.015025786262077
0.0150622566436512
0.0150487566715751
0.0150141994120305
0.0150104702843205
0.0150068876618652
0.0150208988808465
0.0150425446355297
0.0150806440892215
0.0150462652386889
0.0151573860886374
0.0163774708115995
0.0164072611371346
0.0151733406037628
0.0150558115198787
0.015042452882302
0.0156348908198461
0.0157167447910464
0.0153049614845916
0.0153151788563174
0.0150205611106036
0.0150220947853442
0.0153518057919186
0.0171368312751951
0.0170256872851242
0.0152768130308585
0.0150892893437144
0.0151442305736949
0.0151583646783068
0.0150977819083988
0.0153752158169192
0.0156016250675248
0.0156201892749575
0.015389736980278
0.015267046691341
0.015409427929069
0.0151769928762942
0.0151111905546217
0.0150777428069164
0.0151146442845619
0.0151933300126796
0.0151284877749113
0.0151791661991657
0.0152431438812886
0.0152884668770778
0.0152323679962569
0.0152892388871692
0.015355949856793
0.0154808418011444
0.0153628582649664
0.0156933223591741
0.0159886400545857
0.0163550472090718
0.0161064916938429
0.0174189245702504
0.0256701983791387
0.0253540815172249
0.0178643728211639
0.0180156699678794
0.0259589741829165
0.0252797311068458
0.0175777417524826
0.0178955979720312
0.026174267707569
0.026991856450655
0.0181227816595405
0.0182588862659535
0.0265715541852947
0.0268058982607975
0.0184034472391806
0.0181346420145496
0.02734145411193
0.0300878964346934
0.0195046299152345
0.0192229296831906
0.0290584831874432
0.0285368067019954
0.0185523209234324
0.0183664735816416
0.0303881367017589
0.029316056284143
0.0176897054135883
0.0172663069216241
0.0263666363186991
0.0242388877458795
0.0171396818519084
0.0167651005547869
0.0232768184659404
0.0217035648615116
0.0166907347633976
0.016509260692409
0.0203858117027996
0.0191283116582298
0.0161765329954374
0.0164380149965335
0.0202472790862991
0.018178420895989
0.0158000980934748
0.0154920585375236
0.0171666867640443
0.0164044995136186
0.0152255729564216
0.0150576714430723
0.0150234734995603
0.0153197462676748
0.0158162710308409
0.01581299721957
0.0152850126027246
0.0150104157830612
0.0150322226889947
0.0150185871383621
0.0150071946850155
0.0150120220145708
0.0150339951703023
0.0150384843089859
0.0151231382482266
0.0150924464746318
0.0151788993029756
0.0163975826229259
0.0164203130081598
0.015114194725111
0.0150151742978299
0.0150033129842851
0.0152869459388629
0.015816961292125
0.0159095677960441
0.0153427519606206
0.0150009911153204
0.0150115685603415
0.0150063054203267
0.0150037279038728
0.0150018079145257
0.0150037420514849
0.0150080316078014
0.0150030760793246
0.0150046881513032
0.0150159560297414
0.015010470210347
0.0150040491501671
0.0150026512408406
0.0150036584391891
0.0150007408777758
0.0150004790219268
0.0150011010815149
0.0150024509121371
0.015005728721917
0.015002519589773
0.0150068392697873
0.015017980427709
0.0150589920117422
0.0150297883175748
0.0150142218787899
0.0150235814667895
0.0150649681387788
0.0150468014290194
0.0150709540625675
0.0150885498108387
0.0151206469915439
0.0151056529767685
0.0151421667121043
0.0151758055753746
0.0152163728684945
0.0151816196305922
0.0152268544458168
0.0152625341010998
0.0152782354474344
0.015241923057518
0.0152986460795692
0.0153510940855866
0.0153704375546643
0.0153171156650851
0.0154557506428761
0.0155964080316809
0.0156363009386636
0.0155170866671493
0.016164535365076
0.0163876052623986
0.0163733439231534
0.0161633543684415
0.0179796700949074
0.0181430454510319
0.0182729167559285
0.0183031569690032
0.0181268881408542
0.0181070774547251
0.0192372257520668
0.0306323078108298
0.0315729371341539
0.0194717835712171
0.0196240444486598
0.0350534686801684
0.0332720382602476
0.0194319033805883
0.0186557292762915
0.0320886813076958
0.0304301027513456
0.0185422181228909
0.0166985833743584
0.0160870083848109
0.0159318115634759
0.0158925561079708
0.0158396313850861
0.0159639247117803
0.0159729504678784
0.0162829230327595
0.0256617537576757
0.0242209304148765
0.0161990337311234
0.016153225746435
0.0229097915370409
0.021667967604924
0.016131407593997
0.0160857575044084
0.0203387071033231
0.020344299025637
0.0160671895431003
0.0161552770643883
0.0196495861124727
0.0181937189767712
0.015697602163949
0.0153847258396386
0.0171657366676036
0.0171908852582118
0.0152429245617134
0.0153714526064745
0.017419292122291
0.0165754969622239
0.0151585806362077
0.0151338747927301
0.0166614199960278
0.0159604074714508
0.0153731550111358
0.0150032603598997
0.0150099572184222
0.0150066038416066
0.0150029642973781
0.0150016731085844
0.0150036809093345
0.0150037705035759
0.015001661930126
0.0150016172411499
0.015004145321332
0.0150047281078656
0.0150015651990411
0.0150008263738795
0.0150043822145565
0.0150023207696772
0.0150016780551121
0.0149996714693252
0.014999773960148
0.0149995457489283
0.0149989949891162
0.0150016643099993
0.0150044080450855
0.0150185774247089
0.0150103716581864
0.0150073639989997
0.0150097492551009
0.0150311118257673
0.015022294780738
0.0150568765331843
0.0150749663378598
0.0150947267251719
0.0150808774274223
0.0151134493864146
0.0151235289852109
0.0151130683236383
0.0151020299064549
0.015135149167964
0.0151452348618466
0.0151560332791683
0.0151407361140727
0.0151752549321552
0.015189280805678
0.0152077909589917
0.0151928942293173
0.0152438629561328
0.0152787677165438
0.0153001110593387
0.0152656953548602
0.0152858166700778
0.0153200380633648
0.0153398475426195
0.0153059808108846
0.0153688162463129
0.0154297228647534
0.015449614625847
0.0153907302612236
0.0154803332218642
0.0156068643392813
0.015620495287305
0.0155046659197822
0.0155565532854528
0.015661022101583
0.0164276606452487
0.0162303175432591
0.0162192210037375
0.0164118913130989
0.0165625501912249
0.0163921477657066
0.0182362609774341
0.0181925916454988
0.0186362764995516
0.018741419807226
0.0208602065699703
0.0200688728636723
0.0356822692042452
0.0379128924157144
0.0429904618974287
0.0392416057798132
0.0201304340952587
0.0214765404496601
0.0189340589703652
0.0193196422166291
0.0193261095198288
0.0189619498250875
0.0214011216664642
0.020231007214121
0.0419579819118688
0.0458033283417029
0.0440604891701436
0.0208658077220623
0.0201146925490301
0.0417078630624176
0.0433009492230726
0.0201308553576437
0.02021150421629
0.0436469552826214
0.0390582036417287
0.0202227937669288
0.0202302750192644
0.0398107922281048
0.0364010689102906
0.0202201209257165
0.0193898303446954
0.0360063737872329
0.0339096857170526
0.019033663400668
0.0197340571759918
0.0340830291098024
0.0339250341750462
0.0195494266679693
0.0179945279468377
0.0298303631273258
0.0272775741708352
0.0172359212106496
0.0168620869850258
0.0250488132129051
0.0244713086569426
0.016655733143021
0.0166295734628041
0.0228751191745893
0.0214100339774879
0.0165942107823124
0.0165767861972279
0.0214819760052967
0.0223921918489995
0.0164452392254523
0.0163366237553525
0.0205617662240344
0.0220309674003727
0.0163449920907052
0.0161344973370638
0.0215267181120136
0.0228202395874147
0.0161542744375546
0.016179331769761
0.0243330682446738
0.0260463480356648
0.0162369490360608
0.0163101514824327
0.0280193815392094
0.0270685727446009
0.0166808053790467
0.0178633529146592
0.0286576493467673
0.0252426891788533
0.0162155062842463
0.0161012192853124
0.0226497718511855
0.0202099432974597
0.0160350395346613
0.0156185154313463
0.0185569698654152
0.0186634422352596
0.015450733258645
0.0153333216336698
0.0175281718630686
0.0173192944519239
0.0151288251678358
0.0150602094384341
0.0165549532105432
0.0159013144697639
0.0153407317529755
0.0150016315799096
0.0150071276077366
0.0150113504906645
0.0150025733785193
0.015339815012188
0.015897875043017
0.01654968917662
0.0150680948521143
0.0151451711756888
0.0166561655757986
0.0159570549141704
0.0153704870537547
0.0150047510984205
0.015009032450859
0.0150087967552945
0.0150033752426004
0.0150028032064134
0.0150062428896269
0.0150048485700809
0.0150018115028601
0.0150015736342315
0.015005137545833
0.0150066351663655
0.0150016992660272
0.0150014143241257
0.0150115571390567
0.0150434246012573
0.0150089158695058
0.0150050079157978
0.015002163542691
0.0150179740709773
0.0150368788946614
0.0150769409656471
0.0150454026717249
0.0151035798358328
0.0151684079437164
0.0150695059350686
0.0150395193702805
0.0150895635231081
0.0151295399816426
0.015154993986681
0.0151197628212955
0.0151598658789746
0.0151945873976733
0.0151317477941119
0.0151184938906847
0.0151538106470049
0.0151664849699782
0.0151557388638804
0.0151467230147983
0.0151777068126739
0.0151867753787231
0.0151778981151866
0.0151690363680728
0.0151849728139434
0.0151947082200417
0.0152055460503116
0.0151912114645522
0.0152099463588966
0.0152239044968042
0.0152266251592366
0.0152122317768554
0.015231231317886
0.0152456055611762
0.0152651478811214
0.015250699198832
0.0152700415825657
0.0152849835425272
0.0153584967436594
0.0153253654261185
0.0153423550060266
0.0153745227430107
0.0154656508184519
0.0154103807168509
0.0154292763818936
0.0154816460965168
0.0156336619003633
0.0155274363239469
0.0156117832585285
0.0156889712788912
0.0164845207612699
0.0163105377269964
0.0165164352968399
0.0166314267091522
0.0172260287621154
0.0170545572208252
0.0171273311222786
0.0172839082741302
0.0189542863705084
0.0186444205164069
0.018603426420502
0.0187515228467325
0.0200810578804053
0.043993818305062
0.0468776365751749
0.020700564988312
0.0207160313190163
0.05107034648495
0.0476761817124979
0.0201135363739018
0.020041459706457
0.0490411155960859
0.0454038168031896
0.020050207911006
0.0202223301127875
0.0422039688959218
0.0437552319456986
0.0202734117687602
0.0198575801665448
0.0394804044571253
0.036487268231766
0.0197757737262324
0.0197416292700182
0.0356891267438858
0.0337520734910433
0.0195225725509848
0.0192449828798074
0.031078324477057
0.0283920644405657
0.0175930641249608
0.0167843744070781
0.0263123086007545
0.0265494083109099
0.0167165579052958
0.0166514887126553
0.0247121761516591
0.0230706724682849
0.0166093820658045
0.0164740212938331
0.0242600324815038
0.0235885767606449
0.0163626075168775
0.0163976393008706
0.0254281351848563
0.0276018913495005
0.0164572607419467
0.0165364616458653
0.0301322795141301
0.0330499396192459
0.0166850032631783
0.0168585122995432
0.0305197530221996
0.0290365443045335
0.0175853586971497
0.0182623063418009
0.0300075952497397
0.031862888985149
0.0183486695943925
0.0182202972935945
0.0305851676735668
0.0296789601853182
0.0172602567834172
0.0167333569267678
0.0260611452877635
0.0237847382609779
0.0159073008089772
0.0157695326801853
0.0217792152536346
0.0200771298036982
0.0155971071349691
0.0153856378942874
0.0193184267758296
0.018230699807705
0.0152166141445087
0.0152755702950605
0.0182184508948721
0.017312893912091
0.0151358388166823
0.01535487255838
0.0175183811111843
0.0174084624113463
0.0154458968891371
0.0152671921475784
0.0171650517935774
0.0171483480853814
0.0153698375558565
0.0151671275567786
0.016389270228596
0.015808768000944
0.0152825180819414
0.0150062339696565
0.0150261520474587
0.0150135660768241
0.0150039515438084
0.0150085851457495
0.0150306865114634
0.0150513316407933
0.0158154715743904
0.0153167900387642
0.0150170748714566
0.0150270910662202
0.0153126238803725
0.0157543228962441
0.0150625454779553
0.0152643809310636
0.0163401254157883
0.0164223365896816
0.0152513132916432
0.0151625957232933
0.0163711086062101
0.0170316954408679
0.0172044781890162
0.0155180296352705
0.0153560993871373
0.015653463687689
0.0157846220389865
0.0184722884813201
0.0180769714549
0.0186945428363339
0.0191391846973375
0.0158669477535451
0.0156499781752621
0.0153997853833489
0.0156101811057033
0.0155899613119931
0.0153856638077323
0.0151148052469333
0.0151847362539431
0.0152091120207916
0.0151315874355387
0.0152781392519728
0.0154130014685641
0.0154868905296082
0.0153282175963097
0.0154033257729076
0.0155646823273323
0.0152709377204397
0.0152112817818216
0.0152838002350332
0.0153385150771042
0.015238403545184
0.0152034785820875
0.0152512434830177
0.0152816541515978
0.0151981715159158
0.0151854546597155
0.0152340811982371
0.0152438856621932
0.0152210406537488
0.015213046705627
0.0151823867690971
0.0151926332022774
0.0152138027035485
0.0152056410979154
0.0152036739900859
0.0152130946984374
0.0152322421589098
0.0152228669451018
0.0152290686859087
0.0152429424542203
0.0152625713766181
0.0152486699846748
0.0152681392161316
0.0152825297648884
0.0153024110360157
0.0152860727407262
0.0152877454307679
0.0153045939881195
0.0153251448686039
0.0153060077998141
0.0153592844300397
0.0153909456477503
0.015397332959035
0.0153693437585979
0.0153830259298241
0.0154088870783161
0.0154906417042887
0.0154478324221742
0.0154568973079386
0.0155006850587094
0.0156360748072531
0.0155488410938152
0.0155631482833678
0.0156534308606297
0.0157043710082892
0.0156341240742813
0.0156524453387392
0.0157092961521992
0.0157122914960012
0.0157266737071176
0.0156214750754549
0.0156928925709854
0.0156911851982605
0.0156176882643241
0.0155404628207116
0.0156377430865922
0.0156292304766894
0.015534300354145
0.0154405659633377
0.0154876779526571
0.0154828164085594
0.015436497049133
0.0154903254732165
0.015523777739355
0.0155320844263574
0.0155343856685854
0.0155340581101712
0.0155079591072654
0.015506379664097
0.0155022544656544
0.0155001673257533
0.0155146767584878
0.0155137313179802
0.015537293210177
0.0154441577474101
0.0154339890457819
0.0154309712495498
0.0154347660664801
0.0154452698822846
0.0154395856777908
0.0163868147587539
0.0238995523954919
0.0221396283453401
0.0156830367891401
0.0154975743293373
0.0206345003129349
0.020747123150085
0.0156430509467152
0.0155442362325278
0.019326982014655
0.0200144149191821
0.0159657920995995
0.0155527852332798
0.0186347756620597
0.0185944775150972
0.0157185014330506
0.0155002404440665
0.0181357286818722
0.0181578614415775
0.0156529391924893
0.0157792127168948
0.0182242671852044
0.0186383882767694
0.0159817018956267
0.0166027855065641
0.0196438627176186
0.0203497995167725
0.0166705208680829
0.0164667553305431
0.0207286643510019
0.021144095208793
0.0166177787228897
0.0162576736817663
0.01586095959819
0.020525479387541
0.0209129307798658
0.0200664618878786
0.0159746347206118
0.0156913029459034
0.0195987934196919
0.0220660739594617
0.0217252165156772
0.0162691959376757
0.0166415677259988
0.0157282986051159
0.0155229215498415
0.0157859811107373
0.016024942847102
0.0154427866080595
0.0153848430073809
0.0154138602770355
0.015470152729387
0.0153064973724966
0.0152754594313869
0.01526729441595
0.0152986560169936
0.0153063506988488
0.0152781583371075
0.0152999109362452
0.0153280667090412
0.015264868165974
0.0152517265875472
0.0152523207816719
0.0152631235020127
0.0152398109815702
0.0152306477460969
0.0152299337864724
0.0152393576105242
0.0152328638610204
0.0152247893973716
0.0152450507647963
0.0152531437657311
0.0152521717582128
0.0152427728149542
0.0152627258813913
0.0152728561676849
0.0152940822816817
0.0152812824506052
0.0153007277552596
0.0153166226183012
0.0153233689456431
0.0153046889420331
0.0153146167766235
0.0153306098952846
0.0153422659098329
0.0153279717265341
0.0153290069980768
0.0153436243260183
0.0153434595109946
0.0153286792284729
0.0153767480436468
0.0154019237464907
0.0154111547789875
0.0153879174429143
0.0153972279049957
0.0154215825708179
0.0154997674424746
0.0154601990994787
0.0154736239058408
0.0155148213913907
0.0156449560076781
0.0155645350132121
0.0155849484023112
0.0156708811251081
0.0157216689995289
0.0156523839526735
0.015710889951723
0.0157526060729398
0.0161206117325457
0.0161110571740915
0.0161413662260489
0.016144530108998
0.0166767462962882
0.0165737329436156
0.0166315681950875
0.016722373941236
0.0173283258912305
0.0171853382571745
0.017257570248498
0.0173900708286895
0.0187318677296846
0.0186199396437166
0.0186679929644313
0.0187742552729267
0.0201897536457514
0.0520326794043247
0.056172873434943
0.0207783081879938
0.0208692666375695
0.0624405089899946
0.0573058238619075
0.0202911378438062
0.0201484582347419
0.0595258862761229
0.0537673417564334
0.020080775803053
0.0203892378989078
0.0517345506397784
0.0538595300095079
0.0203908930693638
0.0203285990906858
0.0485344569488421
0.042999044364815
0.0207341705509587
0.0212014725610197
0.039932580496451
0.037453588377586
0.019960496234912
0.0178684465621969
0.0171136999917527
0.0166421446575912
0.0164916033571923
0.018821820264557
0.0311238078717936
0.0286201505710957
0.0172797744793357
0.0166905618124076
0.0315026021029317
0.0287385660041647
0.0165583986105026
0.0165103916704161
0.0263233796076315
0.0163300217576656
0.0159514206647387
0.0159798786304183
0.01555752621251
0.0156345960017076
0.0161639629688973
0.0165873868542615
0.0179862432886135
0.0315200119573724
0.0340331140551793
0.0186350376659835
0.0191127162778141
0.034093532789578
0.0278728306743293
0.0173856293297739
0.0168156779478129
0.0268326728254126
0.0273968454331105
0.0174643446646696
0.0165747714874581
0.024083984049689
0.0223575666171051
0.0158596552906982
0.0163795354200489
0.0248059237393085
0.0222817199291158
0.0161508136820092
0.0165961393352818
0.0216641739802311
0.0228863784385088
0.0166509654831761
0.0166009482800868
0.0214025245219628
0.0204759512171643
0.0160077855853078
0.0159841991659948
0.020254071943603
0.0195976697330705
0.0160682535075496
0.0163969768289443
0.0203908000961392
0.0193598508661518
0.0161813299247833
0.016590285391563
0.0206893968149759
0.0210648916739513
0.0171367034571839
0.0171629463522146
0.0217430998665846
0.0223148009755813
0.0170960416775339
0.0173736533976318
0.0237423741301681
0.023304666083973
0.0228576985474684
0.0165350686735419
0.0169346101830451
0.0174034570424083
0.0170961437205999
0.0243437391916554
0.0246528414444808
0.0250836320761053
0.0177030949565975
0.0179446121917003
0.0268328775486427
0.0263924607070427
0.0264457943785292
0.0178755556372887
0.0180500271207512
0.0174781726369392
0.0171391611817135
0.0169782606675492
0.0173773505136845
0.0160695549155711
0.0158480230528676
0.0158470008553696
0.016066413414513
0.0154997067197716
0.0154325996774719
0.0154684024997674
0.0155345109444959
0.0155014049635702
0.0154476243725047
0.0152980261629618
0.0153283447589976
0.0153512965309603
0.0153212523078213
0.0153447912870104
0.0153749859258629
0.0153501184690107
0.0153224465264421
0.0152733574090003
0.0152863009477734
0.0152842543188241
0.0152736730695147
0.0152514180910703
0.0152604913339725
0.0152598420616433
0.0152505141805224
0.0152711278979123
0.0152813234425764
0.0152743943224657
0.0152654829397635
0.0152846139910382
0.0152965053358793
0.0153201380730783
0.0153047842319177
0.0153155386537728
0.0153283620532517
0.0153411020142752
0.015330001940524
0.0153257864151386
0.0153372260056186
0.0153365848674147
0.0153249051575612
0.0153281453847263
0.0153420906707911
0.015355097972729
0.0153420891411521
0.0153419240121077
0.0153553940306798
0.0153563677113579
0.0153426310536046
0.0153422693341748
0.0153561847161079
0.015369059003224
0.0153550985196746
0.0153980295416829
0.0154206304574145
0.0154341401015317
0.0154099132516695
0.0154706856433658
0.0155091971435293
0.015528779904132
0.0154878847446811
0.0155767482151681
0.01565464822685
0.015688169195964
0.0156024881711082
0.0156693087492361
0.0157399220412965
0.0157733646963484
0.0157317316692641
0.0157523651289578
0.015794299116512
0.0163159716339089
0.0163076349216515
0.0163150999277417
0.0163159365784617
0.0164135689280043
0.0164187953563346
0.0164162554402451
0.0164012415353097
0.0167711498081899
0.0166928717955131
0.0167575491938992
0.0168240458658123
0.017472626107514
0.0173419429464374
0.0174348745103963
0.0175652275368461
0.0188375838690095
0.0187353626990039
0.0188169432266484
0.0189130673493418
0.0204083857647976
0.0635330602333225
0.0698658805173136
0.0209770122913043
0.021102525509161
0.0205424285234008
0.0709663109805554
0.0788889623365085
0.0897855396130648
0.021244439952201
0.0206928613283011
0.0797666733139143
0.0836005923047579
0.0204483586382281
0.0203288488979061
0.0742801144149395
0.0663221934753853
0.0202299406894053
0.0209813004158344
0.0658455793309661
0.0659430051474422
0.0205544355844515
0.020460116844868
0.0594953443522501
0.0547328806110602
0.0231433335570714
0.0227159858762992
0.0482983618209442
0.0433148671413519
0.0231262913278696
0.0220360409672066
0.0387154691895791
0.0355048715010481
0.0213212097550134
0.0204248677832414
0.0350344420013489
0.0387876035703221
0.0188704082042034
0.017914327859617
0.0346608925899792
0.0166127043708105
0.0162140459581888
0.0163417815837265
0.0158347489239094
0.0158060691065624
0.015893289377422
0.0155142369668305
0.0158210142558631
0.0162833649743165
0.0175978201545454
0.0280176356960218
0.0287370500740227
0.0179943992078226
0.0180871972761085
0.0289984846681594
0.032998315115846
0.0192174607544645
0.0182716925437453
0.0305487909762971
0.0291721774593449
0.0181094211650787
0.017736858500371
0.0278241488581426
0.0268577099294864
0.0171324947710577
0.0169710948476417
0.0315321223390223
0.0288530353799463
0.0168416240777803
0.0167426436495406
0.0265992829975387
0.0245656001028124
0.016666557596511
0.0166194167195962
0.024284592972611
0.0231324674852299
0.0161120678915585
0.0163598563583314
0.0235178594960472
0.0220541264252997
0.0162952948521383
0.0162568191115781
0.0205176015728438
0.0224504417240894
0.0163684263865508
0.0165717195867581
0.0216678536322135
0.0216939098349744
0.0166396419729613
0.0169861414298041
0.0223446544318323
0.0232925254975456
0.017822133079577
0.017905633237805
0.0236716797250286
0.0245699280740367
0.0177363378214322
0.0180979847342188
0.0247409551732449
0.0268701560287975
0.0181945534794588
0.0182193965723728
0.0286172150289773
0.0281493414908074
0.0179577417400352
0.018048697401791
0.0178282514323038
0.027778717678498
0.0274477873757146
0.0286726600075217
0.0294656134997328
0.017851395968304
0.0180826973264137
0.0172905869161128
0.0170009060742159
0.0160036433607789
0.0162278801681287
0.0161794440798318
0.0159781016755128
0.015504043363599
0.015570256773505
0.0155295294993522
0.015477221879656
0.0155044424065798
0.0155556126646734
0.0155784325587219
0.0155288557651425
0.0153680634064414
0.0153985344625462
0.01537141992886
0.0153439597598211
0.0152950961525948
0.0153087587416449
0.0153063852212695
0.0152950644894989
0.0152723060720297
0.0152822202079648
0.0153050411055295
0.0152920639810365
0.0152905152806592
0.0153036767626766
0.0153278065086545
0.0153111145006619
0.0153223023379384
0.0153363649035915
0.01534987965517
0.0153376525031895
0.0153310336222448
0.0153419380429329
0.0153571433830655
0.0153468208351894
0.0153452050064387
0.0153557983567505
0.0153513401126584
0.0153406103271429
0.0153393781119894
0.0153504208821653
0.0153645612483259
0.0153533648250408
0.0153554268644633
0.0153683930513049
0.015368695604102
0.015355170688374
0.0153555436171992
0.0153693277607704
0.0153823899590085
0.0153681881728682
0.0153676329471665
0.0153820005393672
0.0154302693783492
0.01540785354301
0.0154219239782416
0.0154464764762475
0.0155187610451156
0.0154805876395522
0.0155010969461552
0.0155424099566936
0.0156647361883114
0.0155878461348719
0.0156185274548035
0.0157050703183678
0.0157583097992736
0.015685889207479
0.0157025007181734
0.0157766598559204
0.0158145252579122
0.015771760645122
0.0157911877193985
0.0158349438550228
0.0158548008538652
0.0158099483726829
0.0158290817865352
0.0158750800126593
0.0164798414498688
0.0165018553096672
0.0164967193398675
0.0164649956475327
0.0165388374964468
0.0165761708684512
0.0165690141339019
0.0165230235757297
0.0168801434271806
0.0168231424015418
0.0168857879346966
0.0169378259377705
0.0176637863895569
0.0175345854879519
0.0176387715847129
0.0177682423054818
0.0189997664212857
0.0189111315295623
0.0190159808255913
0.0190978410299475
0.0192060163552533
0.0191292283296861
0.0214036425868452
0.10308659189409
0.0902548429316535
0.020859420984612
0.0205843037353185
0.0945424762210932
0.0999112505820422
0.0212625079613913
0.0209564282657726
0.0959751421056534
0.0836636935923826
0.0207778022406793
0.0206600408395838
0.0738263214788791
0.0706241710493998
0.0228042472897797
0.0229606308077485
0.0622429817743459
0.0632864861332104
0.0243371071585819
0.0245022976864323
0.0542039415090133
0.0490564861468071
0.0245640555168667
0.0245938306191042
0.0461377807375947
0.0552524014413616
0.0245167368374166
0.0234298611368401
0.0225906040489694
0.023208524924462
0.0429526403944143
0.041623081071394
0.0231465005824016
0.023105673164534
0.0416050451105344
0.0384884336709598
0.0223460538105161
0.0221427972564509
0.0374685453141036
0.0410548300794842
0.0222175610341936
0.0206198563737649
0.0406330626731697
0.0440485175061086
0.0190513057087907
0.0171455643548719
0.0397810075437078
0.0362391189122225
0.0168939970286697
0.0169994219553281
0.0335409606808363
0.0336800434955324
0.0180168231978469
0.0180357165101762
0.0372616178567884
0.0345709168506912
0.0184037211605703
0.0185540026685229
0.0378987838657515
0.0416560974269547
0.0186958616685991
0.0187519636358039
0.0375459448474929
0.0419221074338813
0.0214801000573176
0.020802772932658
0.0373756056959784
0.0364875138862693
0.019853588813904
0.0186909255351425
0.032918667074825
0.0308747566576436
0.0182626108386451
0.0179741285338588
0.0296583533788112
0.0304365679236855
0.0182426043920773
0.018249768009064
0.0310681202861735
0.0362078289766216
0.0193910313951291
0.0214433648252423
0.0417335196594414
0.0360054519545141
0.0205183917185302
0.019201174544056
0.0326704824305323
0.029811008751472
0.0187611046373568
0.0182761978295403
0.0316240073581668
0.0377630077794823
0.0173236142002252
0.0171511090946733
0.0343567770870353
0.0339511443221595
0.0171283961651718
0.0167568029779481
0.0302614513121518
0.0316032256857692
0.0170747313021071
0.0168295248282207
0.0292688578940532
0.0271215168107888
0.0166235824816658
0.0164673425537216
0.0251905081550057
0.0261410509768956
0.0165627035296009
0.0167831639976745
0.0247362472483931
0.0247248890733612
0.0168552730153907
0.0172443129120104
0.0260265822700499
0.0294234705951592
0.0179691129785774
0.0181248019490591
0.0294984741212379
0.0308352093475264
0.0182889283192247
0.0179766636872347
0.0297116833326019
0.0313118039155796
0.0180401569664728
0.0181615358428479
0.0179232242920674
0.0312416667948166
0.0300254415800968
0.0315058135960139
0.0332486395195583
0.0180499814689213
0.0182913807521072
0.0174712535298338
0.0171731104962648
0.0161607881086027
0.0163915066997427
0.0162675724314557
0.0160765926400155
0.0155739590417162
0.0156393572389429
0.0156685352138215
0.0156047668157695
0.015549376552789
0.0155966469813405
0.0154209217616621
0.0153894094569969
0.0153636596233467
0.0153917192498272
0.0153321599920839
0.015315689843753
0.0153153055084428
0.0153296061865988
0.015355296500274
0.015337201582482
0.0153133273840702
0.0153300652632603
0.0153390644994648
0.0153251185583123
0.0153414622890811
0.0153533228407517
0.0153499992735059
0.0153381166376198
0.015354931803924
0.0153661756014404
0.0153659627332218
0.0153541163602704
0.0153708284414301
0.0153831554260027
0.0153731471418123
0.0153625786856086
0.0153601869845134
0.0153710478491468
0.0153658883290469
0.0153550507670721
0.0153695092661462
0.01538083509947
0.0153789488730856
0.0153672237546826
0.0153685602768732
0.015381892969067
0.0153820925704409
0.0153681179447147
0.0153813932743251
0.015395756012633
0.0153956907334319
0.0153810946522527
0.0153804038453066
0.0153951519044577
0.0154402546358077
0.015417998171384
0.0154339910177145
0.0154588320284217
0.0155286898512739
0.0154907828031269
0.0155143415514529
0.0155560489344502
0.0156753555101748
0.0155993107203093
0.0156346109871454
0.0157218466346278
0.0157384248629349
0.015650655905262
0.0157190832240693
0.0157949665315979
0.0158132374535842
0.0157356582959732
0.0157522773539589
0.015831499308119
0.0158497408064693
0.0157689545799862
0.0158478098823662
0.0158949597594157
0.0159153779091579
0.0158670870574088
0.0158860373379629
0.0159354293552858
0.0159560309345491
0.0159055725493502
0.0166449097911346
0.0165937772667572
0.0165759307032905
0.0166351557306298
0.016707517487931
0.0166438775063697
0.0166233004229723
0.0166949492442334
0.016945248955956
0.0169956911967471
0.0170526692048805
0.0170020784060591
0.0177448576377173
0.0178767095924678
0.0179865054988457
0.0178497203064214
0.0179482825257353
0.0180935839063954
0.0193215307414649
0.0192482081834721