/*--------------------------------*- C++ -*----------------------------------*\
| =========                 |                                                 |
| \\      /  F ield         | OpenFOAM: The Open Source CFD Toolbox           |
|  \\    /   O peration     | Version:  2312                                  |
|   \\  /    A nd           | Website:  www.openfoam.com                      |
|    \\/     M anipulation  |                                                 |
\*---------------------------------------------------------------------------*/
FoamFile
{
    version     2.0;
    format      ascii;
    arch        "LSB;label=32;scalar=64";
    class       volScalarField;
    location    "400";
    object      omega;
}
// * * * * * * * * * * * * * * * * * * * * * * * * * * * * * * * * * * * * * //

dimensions      [0 0 -1 0 0 0 0];

internalField   nonuniform List<scalar> 
207032
(
3.36619856124097
8.27080285629712
28.5220309255329
25.8065560991906
7.03451130751254
6.83472918009385
25.4349682416336
24.1323463546149
26.6476904150898
4.51402213027786
5.1177137141584
2.58174980916265
2.17021484851103
2.29026961413398
2.69047511120417
5.54712218630363
25.4553549575451
28.3487113261522
4.68698437054914
4.87128821242943
30.1646308052296
27.1632219897617
6.09227671166379
2.90693565884285
2.4126800869925
2.59150434575954
3.15782148379944
6.82490921273239
29.1526443182332
31.9070712902152
5.38626705960255
8.56127739800843
37.0414348712162
34.5728626160954
9.77718446271568
10.0646049649013
35.8782487101113
31.6733743048891
8.76566887390832
9.62949712414519
35.4637763304082
34.2074288348828
10.051693416565
9.64864863241921
30.4639832740116
25.1981906440859
8.08175332839816
5.33446118325267
19.2693546840375
15.3436587209933
2.8927918065895
1.51860511300667
13.7386411022092
14.071277053351
14.3850306864379
1.07608819622147
1.09084308199445
1.02279600026729
1.00357642267826
1.00224697643369
1.00113844418627
1.00461614330205
1.01644324557536
1.03082510300472
1.01219882515011
1.73826698595471
17.5347412755408
15.3108503600497
1.67928870615408
1.06975349953115
1.04183399247201
16.6687280804917
14.8780124039062
15.0809171319086
16.5571683395688
1.03051795464159
1.03791068528679
2.44197974996338
16.6743538529825
19.3501264239441
2.38538371668918
1.16065195171127
1.20588495582065
1.21191513113593
1.16345336952414
2.93310918066587
3.54367220320434
3.54387846103723
2.9413138814377
2.09336921951027
2.3475520232208
1.21881948536002
1.16796509096604
1.06017511239996
1.08353237347969
1.31753465008934
1.18730677160731
1.27982048744391
1.40001517724252
1.44410846583715
1.37055871860293
1.48155394093955
1.58036928665078
1.91378898651827
1.63372775997354
3.1754753928226
4.02881574171177
5.4404416538646
4.81572023471215
11.0840945095208
47.6656540081729
45.6291360926257
12.0512298340933
12.6607266659463
45.3009372450914
40.9947070825928
10.9383063691312
12.0881713656003
43.6691011091033
50.3857621041976
13.0345607799833
13.6830312328344
50.6535169408118
56.7566448530257
14.6420468633862
14.688207971795
62.2504115923219
82.6842893629758
22.4030634807576
18.8700150994672
70.325072942175
58.3657691883351
14.8733588916468
13.8048230468303
52.6310691978706
43.3357517454669
11.5385819607849
10.4222915619655
39.1429531857442
36.6859724178218
10.1167181049189
8.09228074778171
30.7339666511511
28.8063023995956
7.87215326352462
7.3213088190946
26.6743206045572
22.8752478437428
5.9589125878798
7.55192955036012
24.9937417932829
18.2468064771255
4.85813099643208
3.35676856861035
14.9408944373044
13.0727955078726
1.96762094668369
1.03819591438471
1.01055046042622
13.882651386469
13.1540363530291
11.9403490469633
12.0348993882402
1.00269383624819
1.009269431543
1.00318881689184
1.00106521111266
1.00255042253292
1.0090754103102
1.01100360338817
1.32778166828231
1.40775238195798
2.08352211067134
12.6802553148178
12.5438237351135
1.7596001684516
1.00575762649948
1.00167203769403
11.8498111800175
11.8081078527295
13.2079068916871
13.9064489362582
1.00443941222823
1.01019210408372
1.00066158988833
1.00040871613602
1.00011540484992
1.00023839691613
1.00081563753208
1.0002713160336
1.00054156859626
1.00303302150012
1.00117835917208
1.00027407992124
1.00023551085332
1.00037452737562
1.00000242998415
0.999985089617807
0.999951730726246
1.00007155722678
1.00031125842638
0.999979257415261
1.00053486557184
1.00276579116089
1.04113087500335
1.01984586215701
1.00251597576353
1.00524517812694
1.02127777249309
1.01453972574484
1.02594975661807
1.03549396950882
1.05548295976415
1.04606326262619
1.10935154452289
1.14442466295353
1.18460754010718
1.14814483002666
1.21222140989258
1.25342587576438
1.26528914293442
1.22257759836489
1.37265810077066
1.45940818027924
1.4799264031819
1.39055072414201
1.85799974654036
2.23118520073186
2.3170660261372
2.03584365041603
4.89610809472936
5.45525882159995
5.4179142328701
4.88555433095564
13.8003938427041
13.4327099046861
14.0472898920728
15.5651405002515
14.5338353369929
13.1715823177215
18.8556224222911
79.4379611375151
96.1675917713404
22.1077457781666
22.7103129569442
99.0608259380209
83.4201710829308
19.63600740945
15.1448451770086
68.1679124214677
65.3043719992431
14.7200429570481
6.54683940246003
4.01977437794169
3.27994275139765
3.75057840825071
3.5835007492951
5.08953623187467
5.05198218084983
6.73749018088053
32.6432974797329
32.180125733793
6.70304455654916
6.66370059827404
32.3679304715181
33.0281010982731
6.82299231180675
6.77938544387532
32.3429772270562
31.9360947039916
6.69480226811407
7.25066093606489
26.465716530299
19.218576979995
4.84099876195816
3.30583711746009
15.2447398464804
14.8132101436767
2.54369236529912
3.52962142913048
15.7617810480972
13.4309528828209
2.17776232608516
2.0205652956107
13.7560686458849
13.9444165854283
14.9598405067468
1.00388373768473
1.01157022971596
1.00083429851872
1.00025804185834
1.00009246875772
1.00021668888061
1.00018006872942
1.00009253272884
1.00009086074017
1.00022682030929
1.0003468057827
1.00008073523162
1.00000761275126
1.00030956658868
1.0000958893298
1.00003223938235
0.999942250182922
0.99994170490346
0.999937287080666
0.9999186951237
1.0000876781678
1.00040199749275
1.00360631256894
1.00134243219549
1.00060571562339
1.00095471345977
1.00865291618433
1.00494789865158
1.01971578058268
1.0287351075143
1.03844866809615
1.02900734672845
1.04791702771607
1.05465190149333
1.04676440888182
1.04091285007536
1.06534900186542
1.07182154726216
1.08223610282862
1.07153453960309
1.10406155130268
1.11617302054088
1.13755462305573
1.1228134512225
1.2287354329451
1.27038928510525
1.29883980609829
1.25694146589348
1.28373012385708
1.32640195788754
1.35768257129272
1.3147064796766
1.52324333784095
1.63826286817384
1.66377919132753
1.55277953946796
1.8888439556652
2.20666824882789
2.2013701059825
1.92141487545623
2.11940139242629
2.3460028060837
5.47713550629201
4.99141018319081
4.96011429756519
5.4394041467004
5.89421693513086
5.56524292881338
14.941958491384
13.3728007597549
15.308417826777
17.2753516061717
28.6685726487224
22.327912687933
93.6227196846567
113.258184915488
137.094344790269
105.482049392673
22.2102995508873
31.3015253655871
18.0827107064661
18.4208294351285
18.4342184159112
18.1383938951308
30.7302067538051
22.6671600426936
111.626476122816
143.461156592414
121.12921044036
27.7009663158955
22.0337582461799
106.356499287419
96.0531756336228
21.6258758186727
22.0044810445333
97.0558402204649
94.0341383140683
20.5590443933408
20.6706831796716
91.2628649120125
87.0507963849405
20.6582871071015
17.5945488755933
84.4975590022238
77.1034196683686
16.5287029898862
18.2662226855697
65.3926686548792
54.6509451109762
16.678055380891
11.156458881385
39.7629756049179
34.9482738706977
9.31635319543136
8.35203703141851
32.3669945986035
30.2550276788469
8.26486446116313
8.25414432564933
29.121327073434
27.4230778772094
8.13466958425687
8.13017042632947
31.4657853039965
40.5448767236659
8.6954021691148
8.36962549546027
37.4932397970794
40.9017177548153
8.34626893281439
6.83197537773639
36.6659634776154
36.0412315113491
6.783496626597
6.77709925342929
35.8802223768548
36.4697967499387
6.81192838492761
6.89235739708794
37.549099501649
34.3164825285769
7.62762664928232
9.92825254486272
33.4947739914181
28.0937496391831
6.47336130832944
6.34164176204601
27.2414751029639
23.3247342003671
6.2936219087868
4.77236809122148
18.8791717922551
17.6166157036383
3.7284071181405
3.22606384918455
15.6485554704614
13.4120560228602
1.7713308627371
1.41440431242884
12.5006161966322
12.823621736698
13.619266904861
1.00347027725117
1.00924159502604
1.00797527262633
1.00297248640969
13.6044794583269
12.8124970404426
12.4972939174695
1.4210421756701
2.02119689337041
13.7715739161578
13.9329135679704
14.9140124261198
1.00339028527712
1.01192358858249
1.00125219393084
1.0003179645113
1.00022767315392
1.00053670723808
1.00029976888215
1.00010970197838
1.00008607998236
1.00033782564967
1.00060395644491
1.00009448995715
1.00006968520193
1.00212514994764
1.01790185527976
1.00177098877108
1.00074977211065
1.00018462877706
1.00429449737805
1.01464942830039
1.03657381121712
1.01301551784626
1.29171705788598
1.37532254861739
1.07450830768216
1.04165685557064
1.0948133758964
1.135730544414
1.16531787376312
1.12100041320707
1.16234279963661
1.20813637761303
1.07015388067164
1.05897888490083
1.08875479279687
1.10056075060571
1.08156987648985
1.07379784311296
1.1068212986795
1.11636631127086
1.10617943656546
1.0984808869512
1.11580044012482
1.12630313300238
1.136814054788
1.1225745613963
1.14768835266481
1.16246024331164
1.16254844519808
1.14761836486431
1.17558277533655
1.19152914159039
1.22611470508264
1.20889613006827
1.2470256678066
1.26748526504274
1.39287494847416
1.3496296826918
1.38322045306939
1.43181990975743
1.68855498102973
1.58401611657914
1.61925632596055
1.71864368587102
2.20529618069274
1.95866711633756
2.27217416165097
2.39659306735032
5.53608658645055
5.13435226424659
5.81661682063214
5.92986691453232
8.64876056520335
8.52669213310489
8.5976427391936
8.63469344812424
16.4820258831168
16.2426300946297
15.7154833892561
15.2268312340592
21.5706481772839
98.3126827939063
110.441280843363
26.4309399825934
26.1789224941026
112.902366440534
98.3635610492845
21.4249263714675
20.4162469854661
93.2701538526932
92.1471537024191
20.725741477556
20.415319630068
94.7397758960106
94.1518535594891
20.6715617636027
17.4716935394285
73.9852005234247
71.8140904479745
17.3354628940924
17.1223195714694
58.72647883978
50.1924202719566
15.0263560717038
14.303397506281
44.1345680823559
34.9122900418113
10.2545288937065
8.48540594247721
31.5335267395463
33.8499155761831
8.25327243529178
8.18303043408185
33.0289896240396
32.393950867001
8.15755089559054
8.67133008544353
41.2779939510316
40.9343315855668
8.33379694232051
8.34436555184656
41.0486440053283
41.9805907420869
8.38713075885652
8.46376073919097
43.5363861205944
45.4935457827443
8.68445436220239
8.10083632411999
40.4508975634898
40.4160835752602
9.79291015744339
11.4740854456662
47.7748465104557
50.5830078605182
11.5684150087401
10.6773847330356
39.669857560504
29.8997457761108
7.20631512938738
6.11517695837608
24.6101985425011
21.9957633227383
4.59404947762004
4.46614491175915
20.6590339597396
19.1421008571018
4.14997771028904
2.52965135374668
15.5314428537579
14.368837698241
2.07560180845067
2.28245652030024
14.5219557641999
13.4059996716073
1.76204524278186
3.21133063129056
15.6657179522306
16.2725384067913
4.00747444775362
2.76517964119696
15.2036084174765
15.2732516313158
3.3045156555357
2.07517705841428
12.7257495765501
11.933593674271
11.9846806062688
1.0018659657529
1.00781150807035
1.00207919301358
1.00041492551457
1.00145597184424
1.00839616407412
1.03932197670704
13.1930630927403
13.8435919466469
1.01381755325597
1.10447251076215
14.3406538567642
14.1245114406293
1.11384814670172
2.40040631396066
14.5973916856562
16.0448208948983
2.33212606074997
1.80920519693063
17.6605102091035
20.4609206543489
18.9785958509299
3.72596237288741
3.30441681655644
5.48066519270064
5.06282400398785
23.3117689678947
26.3736500159171
29.4749540825839
25.7990130217516
5.0988001478532
5.1667086396495
3.29683674383861
3.7670080237394
3.75921373207681
3.28896361726124
1.29615958168573
1.38423371597977
1.39486815162982
1.3026527428422
2.29234547375967
2.48259231712015
2.73178552543041
2.39338889055172
2.63067134257519
2.96337035646924
1.53095537009554
1.4308567786051
1.61576537805891
1.66348568682637
1.25969929226708
1.21719459532141
1.29710762304228
1.32809473175842
1.13511262602383
1.12192183570216
1.20864563918152
1.21695833824977
1.17161493146178
1.16032566023988
1.11521347126711
1.12632778370952
1.16100562294219
1.15099698415053
1.14365419492184
1.15444670614272
1.18917901973813
1.17781637777164
1.17827589114618
1.19386402329205
1.23216338832022
1.21557887052439
1.25810236703221
1.27803961136801
1.333224323171
1.30230324657984
1.28508526386835
1.31648114950978
1.37070742650971
1.33014847773093
1.42098413653218
1.47590572161317
1.49298686800478
1.44024183158669
1.47032897883528
1.52276036100246
1.74212887181123
1.65242128151762
1.67074464400238
1.75595430887195
2.1880126193528
1.9830543497525
2.02767507644588
2.23451999531162
2.41777764839489
2.29256107733909
2.36173788245419
2.42238033883675
2.4226641160406
2.65248521338231
2.28613684697445
2.39800264343776
2.39711906327395
2.27132833244025
1.98128538208164
2.20677217966737
2.18419735208089
1.96273048274157
1.63912990555694
1.73007117640017
1.72347701411454
1.6322527708542
1.74095616298621
1.78357586361199
1.81049716507614
1.81085231656754
1.81639648181042
1.74524081996065
1.74036045820043
1.73750594522266
1.73220613507885
1.8045064507957
1.81519656576334
2.10067936356918
2.05957676139804
1.92787625263785
1.83695444690953
1.84916647246932
1.7955665409674
1.72320685295114
4.21317766953448
19.6867884720463
17.5848383194086
2.87631190763529
2.65321088768652
16.6705142315426
17.7738995014672
3.16570109220147
3.10175192643878
16.2364843458097
20.8885383522155
5.54745896616008
4.08524669653332
17.9327474925785
20.2404747059237
5.34925756043006
3.98547395878263
19.4065904956683
19.1073560065542
4.72763954142608
4.91645954916016
18.5196892110695
20.3521065259293
5.42981680917352
8.31380183932176
26.0332282212116
27.3471617537277
8.93463438918897
7.58212240255786
27.5643537445168
29.8356762057857
8.18649017665485
6.67987255826675
5.91709016114921
29.3780002926529
29.687165424131
26.8565905568794
5.42630279335117
5.19956793644526
27.8431714816568
35.6875786778616
35.1727106119577
7.88672981347698
8.58828683930433
3.67393327981343
3.14116634231039
4.40830104406271
5.05620324083426
1.98751454951254
1.93319235608239
1.97205396200614
2.02628798485101
1.37612772656653
1.34247310532
1.32115517913791
1.3550462352731
1.35999239285121
1.3251682305921
1.37363105177467
1.41077129503524
1.26250270947664
1.24347295373495
1.24676269347533
1.26053017193846
1.21106106669831
1.19523058260518
1.1913961203387
1.20856865983654
1.20041411837932
1.18867404799494
1.23560862934398
1.2483100872491
1.23196746034726
1.21935384436979
1.26793979095387
1.28387621717125
1.34604178366161
1.31749930780212
1.37477132746541
1.41460496328278
1.39252603906609
1.35228240208609
1.37551134881125
1.41402768885584
1.446998697731
1.41049992618636
1.3924824267628
1.42620612236912
1.42018223651391
1.38413936952438
1.46786265216661
1.51798472681223
1.54829172090343
1.49753328810774
1.50373467597447
1.55512575653402
1.7654074837368
1.6776634277142
1.7047500783765
1.78501889701927
2.1989665641767
2.00925934259827
2.07311061650483
2.26707667382368
2.45158254203524
2.32511154477887
2.54861664288721
2.54553986701893
3.93069875277605
4.1344413940627
4.17705093073546
3.95618103832953
5.89958619019596
5.82177296143544
5.85127382163074
5.9006728361832
8.56396814778238
8.58283727301766
8.63700561107902
8.57913908793034
14.8456461582127
15.5061939692497
15.438498157049
14.7675662454996
21.5111769165546
101.518637984655
117.406936073037
26.1558301507716
26.2517848471603
123.440247248359
106.275027177185
21.7037854319496
20.4011571180697
102.076452415337
96.9037068901838
20.3457700740593
20.6830464699196
104.015319454297
104.409907889375
20.7910288899543
20.7302420577192
98.7729298423348
79.8776949932896
19.7612170246607
20.6030227051974
71.3388644399191
63.2468707923493
17.3036970898517
10.5962625549385
7.55031682096793
6.20307228118431
5.76304169533196
13.1443260604049
43.334115790516
36.2013165588753
9.47691359866358
8.85628450904091
44.5515021456115
42.871664023299
8.66836385411677
8.65766569137169
41.7642760862301
7.60609637202525
5.3898515735676
5.57544453507571
2.52670580920572
2.64698186156292
4.16120144287795
5.10754301971742
9.63143982582717
40.3058627115674
42.4449234387011
11.0260448483972
10.2811918792141
35.494555204647
25.3377678233986
6.04396144756542
5.0496639953523
23.1098074019108
25.9288007556074
6.6210392161157
4.80204562414329
20.8876406277211
18.6575472248263
3.43476929111095
6.36496031257524
26.2695437962723
24.767197076935
6.00452870544743
9.0732768868325
32.7477860504606
42.4667999316607
9.55639071424926
9.5918600738551
38.5014151487269
33.4325200807051
6.75751578064128
6.60975228600873
31.1274019787469
26.0396307455464
7.07450971727954
7.55706365572156
25.4633008102607
23.732667608604
6.13887929225683
7.92266327655012
28.6101767158151
32.2169520089352
10.6040402640676
11.0713674203547
35.1013168745566
35.4542933248093
10.3167286903593
11.8066147142039
44.9234276665502
43.262698803801
44.1087291909522
9.26785462759555
10.1103907310256
12.485476259867
12.5570628261699
56.6005197698506
51.0613743244475
54.2124656807127
13.5929786226449
14.7623684891793
60.5147408342277
60.7837161369285
74.1749188131492
17.5487649203507
15.8473057200907
12.7074499056617
12.5908466790638
11.6142565446068
12.2247107029638
5.09559358120126
4.48863928628243
4.49830078947617
5.08745871230078
2.16562150645638
2.06934933810915
2.12868917703887
2.21996825996013
2.07380752764087
2.02651810126095
1.38085736321555
1.41372384115486
1.46367753694098
1.43071343438886
1.493432821681
1.52886427727016
1.47215918499899
1.43460194154557
1.29987493556599
1.32031427214199
1.31689890809452
1.30155041936828
1.24647051493752
1.26389756420411
1.25808268901084
1.23924550710119
1.29503099741282
1.31838682790856
1.30587337987176
1.28963322738248
1.34597854372602
1.37492798647543
1.45246324289348
1.4104955808752
1.44307503745166
1.48242594232511
1.52819575309477
1.49031602105356
1.4557110086729
1.48709224862056
1.48285815973628
1.44879801092156
1.42472673320033
1.45938209443065
1.50134667429991
1.46685926719753
1.44791647994552
1.48419758237841
1.46291421046709
1.42854418211396
1.41768383588638
1.45241173506647
1.48465929361954
1.44892138887348
1.52461887274103
1.57684216776653
1.58715248660144
1.53436433783921
1.70009129937206
1.78837433928463
1.81548667124728
1.73518959102635
2.02965484483349
2.21306402884503
2.30241039585082
2.11140083255105
2.3595224459626
2.49038683284073
2.57902604820932
2.59402505079343
2.64107566422681
2.61706879172822
4.52571078523144
4.73713086122753
4.69252973429623
4.4602742595378
4.75186863026349
4.9996055316671
4.92261593829321
4.64641763362352
5.93795367702129
5.90282688726206
5.97091023014683
6.00811124734077
8.69579111242487
8.74669730079161
8.89385480224376
8.86220687747185
14.7821784475914
15.4503695588954
15.5201599781577
14.8467195277438
21.9591349894344
111.894359901614
130.408926718863
26.4191486797729
26.6559778681309
22.279057510241
118.340987109987
138.508937486995
147.712477059423
26.9447670837939
22.6659562210892
125.388086370332
121.461954069779
20.905332644843
20.6725401554398
114.632371993203
108.120893091558
20.5071887831954
21.9714235546369
118.505331140969
117.87237892073
20.9492298051691
20.8456826309222
110.839221155558
107.595126917888
26.2224250977289
25.1126990190861
94.1877454840178
92.1599809503028
26.5669917837491
22.3486565464939
71.4855407061881
65.9426277308657
20.6973333625418
17.5080526189368
58.3834931802209
56.4704294461743
13.4965754239852
11.4896444983326
48.9825680448041
7.73050151784807
5.35794697651968
5.74427187773357
3.19117589594516
3.06425998686924
3.28883595145244
2.03464431754559
2.66827408558399
3.62193051774783
6.39606393984935
24.7252909645276
26.7265886856256
7.49320991850043
7.96193371920957
31.8108421510158
41.2813051899242
11.6936422217113
9.72469569897498
36.9603278588937
33.2204120270645
9.7811167776501
9.04674535498195
30.4641490178651
36.0809582745914
9.10889748429424
9.56399023822255
46.7338915861998
44.5081838525076
9.3420311794915
9.37833003275414
43.0990949490788
42.470113836709
9.28622434489599
9.2080203333274
42.6345446881909
36.119949705161
6.78642004766029
8.26692341508933
40.1717095393292
40.1308619820743
8.23087587651439
8.2371927835216
36.7837511135038
40.0309866859874
8.51304893941495
8.22881435539486
31.2174220547193
29.0415404876407
8.44083113492578
9.49128860493665
33.3468946955627
41.4513459162164
13.9266030098117
14.6921700257277
46.0160354115873
54.4724275888967
13.8045423181044
15.9727080131128
60.4026973529062
66.5096574683358
16.2582140402478
16.1613795316623
67.7218843369413
61.7104843021975
14.6413851699145
15.624823240828
16.9690584868577
81.7715857882365
63.935001107868
61.7620209586276
78.5272504462848
16.7195554608836
15.5059664167069
11.0965667149297
10.9863245032719
4.76780367860822
5.35894034180306
5.14630573573039
4.64266825654202
2.19950764113121
2.2883698335264
2.12247769751474
2.07844052729382
2.1394348556534
2.18295335394393
2.25824655612264
2.21207066115171
1.57016717974102
1.61072443552999
1.54679025907128
1.50550647372246
1.36848534108096
1.39411096897277
1.3882316670918
1.36793048525848
1.30773094825873
1.32958143250075
1.41299778258726
1.37735925450159
1.35636201707417
1.39249785003016
1.48559560443867
1.43397097084197
1.47753870100092
1.52794964153449
1.59604214389909
1.55386800972185
1.51458674524552
1.54395277060129
1.61741843314404
1.58654916566609
1.55185033771679
1.59474294443081
1.53598664789498
1.50520862494638
1.49358070459382
1.53018527528361
1.57969701332289
1.5400433393923
1.50688643075271
1.54317011537848
1.5212672802961
1.48308382525779
1.46113963278074
1.49777002596925
1.53032150110254
1.49104164238473
1.47796547307212
1.51597553912956
1.60327964312289
1.54958065039354
1.56280592634725
1.61885683660696
1.81056415921674
1.72080059236553
1.76333898118376
1.84593968656587
2.22867842942159
2.04818413461526
2.14739443191843
2.3388985867828
2.53355922997375
2.39584928765544
2.43329674606429
2.57691501040441
2.65470853468769
2.68317743393261
2.7285278802853
2.69469725336803
2.73440423441799
2.77145582782317
2.81954344288913
2.77724111714333
4.87265273412381
5.15938468499803
5.07850003510983
4.76514807664698
4.97948716930374
5.2911594512041
5.20999273347682
4.87416207073217
6.1029524060316
6.04363100053597
6.11161524154575
6.21300147978463
9.06035302529957
9.07101149620343
9.27043054790868
9.29339900025286
14.9590752358578
15.6444120694604
15.8201584247729
15.1246840171201
15.3429580638494
16.04151787541
27.287476069121
158.185485470338
133.076578017755
23.1176032629413
21.1830362495196
128.56719168641
145.049699115784
22.5154756189208
21.6360454433625
141.34445028759
132.816960599604
21.2946374702092
21.096490049246
125.025648829787
120.598029258589
25.2127667068536
25.6702786809077
113.842447199066
138.622509411257
30.7094437640724
31.7333891640473
130.229140347676
132.081437723746
32.1449040054106
32.4372887487202
119.006435329068
133.128357141061
31.5474312292176
28.4201206101974
25.0359338504322
27.0333795336486
109.666816987895
104.821599875049
26.9112702283302
26.3654395862627
97.4963302206779
94.2061791166095
24.8828376387256
24.4668373415203
97.2609571198665
101.723799631747
24.6263526568893
17.9283869163356
71.4847412841098
62.3298764377241
13.8266694254782
9.47066697669281
50.5711002229567
47.8793118324828
9.02766179674637
8.35450599491045
43.4625265012714
51.6999611235962
10.775178289971
10.7215168029924
52.913075481884
50.7317439044691
11.4960330194174
11.7756349727299
52.6271829502466
55.184111738189
11.9417059799728
11.0715804581818
47.3708272446436
56.0704754227645
16.3684592475842
13.928159156685
48.2741515569824
39.0793472731866
11.6250008708648
8.50644653508956
32.0234663965964
29.0206676777957
7.82033849900884
7.02782748514025
27.6784149048216
29.2241972626429
7.85132052820362
8.1979758572324
34.2604938375633
46.4258779529427
11.9475906656378
18.1310688371904
66.3050626029388
54.2789064162261
15.8672146717103
12.7250548604355
47.137725295942
41.2201777839431
11.7238287962267
11.5156966936004
44.1644683380082
51.6593004986115
10.1422006961759
9.79236132728185
49.0302156263599
48.920635270278
9.99933590973255
8.02531981599937
39.816565832733
44.5495767083121
9.77117880812826
9.12212223343188
42.6494324823527
41.0674460521981
8.66239674045511
8.39227131967272
40.1712572435763
40.8963423098401
8.68049499596847
8.48165410175777
32.7581387394683
32.018605317569
8.73281173202826
9.99023562334788
38.1421059101837
52.3273496702753
14.0794145636233
15.4378122222451
66.9661735805825
69.0924549700793
16.23852204456
14.4745642591261
61.2385980429796
61.6818534046483
14.4950038141826
15.5936466212806
16.7213281015211
77.8317964579412
61.1117109130753
61.6448161807652
78.8285521303219
17.0188719209086
15.9676853916097
11.4425493142672
11.1659680221618
5.18045432704637
5.78163577363983
5.25120169959894
4.79303969321574
2.39694563352771
2.48573107629012
2.6282435070909
2.5188735521568
2.29320463971656
2.36000380299738
1.71719262186791
1.65582600985921
1.58407144692502
1.64266616782738
1.49114081602139
1.44786153523595
1.44564066473365
1.4821177965436
1.6169770649027
1.55589054339292
1.47360312425028
1.52869472234444
1.57568193675881
1.53721629899979
1.64464764202184
1.66791953306299
1.5973025761199
1.57600659992092
1.69356451921547
1.71649643188529
1.70894919298246
1.65499139211916
1.7954698274752
1.85858418763972
1.71626318678961
1.68313308511269
1.62748599629432
1.67395693037075
1.59312923114671
1.56155231689405
1.63205138512085
1.66463471858
1.6352734112895
1.59251067518978
1.54785947157935
1.58619690501967
1.55826984350673
1.51684142352338
1.55167775310417
1.59721275390236
1.56183805020738
1.52011543212759
1.50528150473519
1.54576690805031
1.62762678244197
1.57276713579764
1.59009365486524
1.64954716360664
1.83241073012468
1.74110980275619
1.79079531198613
1.87637707143796
2.24561128220245
2.06731431927537
2.18364979585422
2.37550023193329
2.41131649876158
2.21931697994214
2.47222420833902
2.62275324419814
2.66751153361338
2.51114597969119
2.55077029522795
2.71141979294575
2.75230823523465
2.58913731451647
2.86617532543928
2.8190724778045
2.86341798371344
2.91777409438571
2.96701457319643
2.90536693652317
2.94885565766964
3.01996172647736
5.40622713614377
5.08130636875736
4.97316546226847
5.32305226228579
5.5032515272459
5.17307524659255
5.05478110650752
5.41597885385711
6.17534555226702
6.33189867098385
6.45269403040099
6.23424159727089
9.48295399793359
9.55624219561983
9.83837271236942
9.69432749823557
9.88323951307699
10.1206757127616
15.606354402776
16.2994981163731
27.695464845379
170.096965274189
141.565967288169
23.6181779198203
21.5085655157805
136.094459896251
155.200109290339
22.7902553327949
22.1748311411828
150.539520475391
149.65073811573
26.8583134798358
25.4900023057147
137.589577900245
128.422392233092
25.1448318235973
30.9096618703448
157.125592828167
143.137757381898
31.6808370659732
31.5730856556923
134.244593127343
102.891537317728
27.2788351891786
27.060889078294
102.872178713889
96.1128432255462
26.0489983902942
26.2921263719724
104.336811220661
101.968440665917
24.9637871066659
24.5967752389222
107.507959232282
103.617910688329
24.4502053426971
22.2289353041921
99.3082997780482
99.2656255550862
22.3331890322321
18.6065171440486
74.549477846268
66.3297142215153
14.5101689908396
10.0609695517741
53.2642844574895
47.1182763931277
9.07745115535962
8.65931971134916
44.9582517411847
6.22560380251283
9.53413336965791
9.50739079765051
11.1304866191967
55.3044370984805
58.8182067272091
12.1208065468989
17.4179028730338
68.333316412873
63.7810392109344
15.94006690243
25.3758642689393
88.3426244076163
78.1541287759097
23.4775624910139
18.0540987524937
58.5795650464886
45.8369151139356
14.38740511966
10.0578957807168
35.4589621307536
30.5215756620507
7.91917963426529
7.25620311340052
29.1254295453957
30.4235596939134
7.97611983426419
8.41331822856406
35.6312795816394
48.7931916113774
12.0545023355699
18.7369494646416
71.8839702003257
91.4191353716085
24.4683694054527
25.8276196211955
119.797759371823
114.068631012264
25.2051144527633
25.4801733233623
110.628093880254
101.294838515848
25.0605777068343
22.8855906641817
81.8857808064231
59.6716753246542
14.4140194545981
15.2735658731238
60.5970716025941
52.9313672941171
13.5834224066866
15.3329065331568
57.2581167859518
48.3273470287396
11.4646838542746
11.8089425132891
48.8821872537435
38.5776173235404
13.4640228998837
14.5391394293208
37.2995473723287
44.4341774683753
17.2102827892211
22.0975546647261
64.6744369428724
84.2349009351595
22.1363055731061
24.8372393122955
91.1199302567113
83.3918587610447
24.3660454267276
29.7048510038291
33.5986052875969
133.293943382677
92.1579454326955
88.7890188272226
126.641194598274
29.9694471833423
26.9053342165026
18.0141023312222
17.9080603321965
13.5931605979836
13.137415685813
8.72092190484575
8.47837344930246
7.83079016920039
8.31042695534346
6.98659341245846
6.5595426190483
5.33594668162714
5.67643685530112
3.92730445204554
3.79808024377114
3.66494165152059
3.77299646469923
3.54356977836542
3.44473570464991
3.21832839931109
3.30572147863601
3.080006373903
2.97628677299913
3.04339122856668
3.12527548057482
3.25514081168442
3.14497193345727
3.22921126404967
3.33231315109647
3.46670172733724
3.31450006629158
3.34531832313946
3.46728391097574
3.53493138136757
3.36093371586303
3.27609449654792
3.4065120290132
3.11761101303808
2.99172589754647
2.82529812756825
2.94096561697123
2.51856480012336
2.47008974336728
2.261675299858
2.3532283894277
2.04674572799516
2.00276538761244
1.85872267770979
1.91299747114398
1.75903008849842
1.72466866533919
1.65792318489251
1.70328826629141