/*--------------------------------*- C++ -*----------------------------------*\
| =========                 |                                                 |
| \\      /  F ield         | OpenFOAM: The Open Source CFD Toolbox           |
|  \\    /   O peration     | Version:  2312                                  |
|   \\  /    A nd           | Website:  www.openfoam.com                      |
|    \\/     M anipulation  |                                                 |
\*---------------------------------------------------------------------------*/
FoamFile
{
    version     2.0;
    format      ascii;
    arch        "LSB;label=32;scalar=64";
    class       volScalarField;
    location    "500";
    object      k;
}
// * * * * * * * * * * * * * * * * * * * * * * * * * * * * * * * * * * * * * //

dimensions      [0 2 -2 0 0 0 0];

internalField   nonuniform List<scalar> 
162506
(
0.015087439161634
0.0150914125049166
0.0162984839236592
0.0164061583244865
0.0167317965520206
0.0165728464933163
0.0151721391907028
0.0151278935939301
0.0164311381655459
0.0158106852537433
0.0153535826339621
0.0150314500190085
0.0150685530529446
0.0150490520325414
0.015013279911962
0.0150111139463385
0.0153245830315836
0.0157351454091355
0.0150449011598906
0.0150920090798338
0.015056120575889
0.0153412033412456
0.0157499525843215
0.015800457704755
0.015375846166758
0.0153291032456169
0.0158118071444876
0.015010304566933
0.0157516779092082
0.015309274793351
0.0150027643536248
0.0150029882263227
0.0150132952880646
0.0150007575454921
0.0149985333858064
0.0149980735126243
0.0153027721167314
0.0157509025820239
0.0150006771604563
0.0150757574054368
0.0162854797518811
0.016286855567979
0.0150717857596564
0.0151160472988036
0.0169421922362094
0.0169512064005949
0.0151187166798743
0.0152570896383877
0.0173879882665301
0.0177210773031172
0.0171052319657863
0.0178912176168165
0.0188732858852218
0.0183098471694486
0.0153536476778819
0.0153030152637343
0.0179966017599545
0.0171592116494896
0.0152291562780256
0.0153346203249164
0.0172187178119775
0.0164794373556266
0.0151769320302917
0.0150524428953298
0.0150163641598795
0.01534840579629
0.0158681895911451
0.0158296425259639
0.015300863204526
0.0150080533065113
0.0150285237896229
0.0150161658789876
0.0150051485616821
0.0150106217153897
0.0150288311651371
0.0150320589145101
0.0150755616123623
0.0150740552690541
0.0151496095655244
0.0164186910669068
0.0164364999295399
0.0150885504390153
0.0150133171784678
0.0150029103019537
0.0152981226022101
0.015825948928898
0.0159353880245811
0.0153536402900254
0.0150018569651904
0.0150105515006032
0.0150023433010356
0.0150017027545987
0.0150002012734258
0.0150016828353135
0.0150056210527572
0.0150010583033449
0.0149989929652141
0.0149990693120375
0.014999595728755
0.0149992861045341
0.0149990320144126
0.0150012831583411
0.015001090470799
0.0157505477683747
0.0153026016366661
0.0149986562431296
0.0150033816516446
0.0153088190966102
0.0157507503306737
0.0150109378014131
0.0150707167000644
0.0162848838578027
0.0162846427651139
0.0150740096437425
0.015114574490897
0.016949102056566
0.0169507416792958
0.0151214001456918
0.0151609645316054
0.017742704080319
0.0177086242453123
0.0151609519159075
0.0151559586294748
0.0176894551863468
0.0185155177041487
0.0154778193853092
0.0157733179466098
0.0193271378666304
0.0201357602829557
0.0187405006242061
0.0197544558705559
0.0212819443025583
0.020603697106747
0.0166403890381716
0.0160702615091667
0.0201732012317432
0.0189447540342988
0.0155807260045037
0.0154594743280763
0.0192317036512768
0.0181480317651954
0.0153564267116629
0.0153190787272644
0.018073934692921
0.0171542767325624
0.0152749442902522
0.0151437936925032
0.0171857343056594
0.0174783207519175
0.0153348747695318
0.0151510197564669
0.016620739602599
0.0166981206592168
0.015120341701514
0.0150080622498994
0.0150015649859421
0.0153820114764527
0.0159814354127821
0.0159210451857186
0.0153476059803137
0.0149991336911831
0.0150044505589788
0.0149999910689651
0.0149998026942541
0.0149990193363186
0.0149973536977385
0.014998136083835
0.0149992988172729
0.0150004419867136
0.0150013908187344
0.0150060221341866
0.0150015104978791
0.0150035940166254
0.0150140249247999
0.0150497360815014
0.0150141269020641
0.0150119420954672
0.0153238174740052
0.0157333456450708
0.0150455764643236
0.0150882445994088
0.0162948717439419
0.0169447235383324
0.0151167664798923
0.0151124814300144
0.0169381684764482
0.017700161532698
0.0151561218337454
0.0151529592390075
0.0177391644052606
0.0186637960161991
0.0153745921222003
0.015385281430001
0.0186716595348824
0.0185900432942151
0.0154163154653471
0.0160095178626041
0.0197382802331372
0.0195753913326366
0.016084761619747
0.0162791145160641
0.0199770520180181
0.0209296223515175
0.0172501211458305
0.0174641957951631
0.0213908521936335
0.0215300315856436
0.0172732843426843
0.0165755330457665
0.0205513386371587
0.0214115035370807
0.0167620187944646
0.0173597787352592
0.0228682833034286
0.0248020413941865
0.0179857527980584
0.0186080457370985
0.0246889705531336
0.0251688493723467
0.0290172452751745
0.0266329577512925
0.0192641230086217
0.019059604717906
0.02644660208957
0.0258198954204357
0.0188990207109989
0.0186105276602692
0.0233790045624449
0.0263199345126543
0.0251224449268856
0.0234564456732831
0.0178164909495071
0.0218783324924359
0.0241518119853026
0.0228177541288419
0.0208574513611851
0.0173613233536627
0.0224802820161654
0.0223283096790804
0.0170298621494921
0.0162414903013045
0.0220604368284999
0.0205338649644851
0.015726163788482
0.0154750815811415
0.0204120898996436
0.0191503143276276
0.0153652498177196
0.0152161913501654
0.0191479052553247
0.0180896389423971
0.0151790797280221
0.015400117895591
0.0185889713536601
0.0186843093417033
0.0154148978671598
0.0153323184508967
0.0175659480330587
0.0173564394503614
0.0151140804608204
0.0150459156316
0.0165890937186476
0.0165844089936449
0.0150512508252608
0.015006587420011
0.0159179876423045
0.0153470335858493
0.0150000943690117
0.015000157583705
0.0150015700389159
0.0150065624225506
0.0150010100542173
0.0150022384460995
0.0150047770678767
0.0159757601229877
0.015380453619017
0.0153517583640805
0.0150004195841901
0.0150096516156282
0.0159306628814118
0.0166115380597134
0.015152711830313
0.0150890458547146
0.0164278974597171
0.0164136154724041
0.0151510045485353
0.0150280517022525
0.0150086070512143
0.0152998121095627
0.0158276027345471
0.0158213280679012
0.0152968923345824
0.0150033701068672
0.0150136367811079
0.0158641265811838
0.0150517625525337
0.0150157876518805
0.0153471397936725
0.0153527039811435
0.0150309246256536
0.0150675199396576
0.0157898275534635
0.0164049929725001
0.0151417074312061
0.0152427096616641
0.0164323687691606
0.0166318910113919
0.0164490094839828
0.0157543623126169
0.0153310145028365
0.0150325458902904
0.0150695410145937
0.0157621255537991
0.0153310696171402
0.015375173110591
0.0157680017793563
0.0172587857956273
0.0176110757943045
0.0171293867634889
0.0153430325560433
0.0152482982802151
0.0171287183330267
0.017957989361251
0.0153269028328486
0.0154393938807539
0.0179093196494115
0.0187463941248717
0.018166705518414
0.0192067897592194
0.0199514235309739
0.0187478814057394
0.0159052117826156
0.0154942706097106
0.0184965165214556
0.0185731562870384
0.0154064565653133
0.0159948203327889
0.0196867424112429
0.0198426137437741
0.0159388596463636
0.0159495889461614
0.0198637951695993
0.0217735403814307
0.0168017735019519
0.0174223555470043
0.0232503778849358
0.0255984758312207
0.017868084034839
0.0177950806625032
0.024994939067787
0.0277450525935082
0.0192015135268983
0.0193824452281993
0.0272004414539087
0.0265269036733006
0.0195651216636955
0.019342488772974
0.0284011495864366
0.0325054214781678
0.0274063739419487
0.0297493354928238
0.0357778826821133
0.0303553313698521
0.0198056998346767
0.019335264990608
0.0298749639829395
0.0279419823629127
0.0192184952231956
0.0190449306465301
0.0267174860763552
0.025363804485286
0.018572736364746
0.018021250026005
0.0236291570811687
0.0232634193688258
0.0173841082555195
0.0172256181519725
0.0244849767859203
0.0239530803302895
0.0168206734982433
0.0158352439803954
0.0219187820296279
0.0218219354415163
0.0155142713689553
0.0152821378821369
0.0203790126773965
0.0215500896399938
0.0155260675991009
0.0154627126844035
0.0199338677963051
0.0200328492171287
0.01548884006296
0.0152220954173189
0.0193160344566319
0.0182610220955604
0.0151697796828695
0.015175282149838
0.0182537674722704
0.017351050737363
0.0151195088984803
0.015335281433201
0.0175537184605354
0.0166888423333805
0.0151252794294373
0.0150475500052511
0.0150072243300474
0.0150113894360208
0.0150051969301402
0.0150040794414947
0.0150039374462425
0.0150020932678603
0.0150443780031179
0.0150230562889078
0.0150544994745337
0.0153358211051271
0.0174643460725079
0.0171728948557686
0.0151411141945094
0.0152759644060091
0.0171447693569551
0.0172068334562491
0.0153372608543078
0.0153622060629403
0.018129243143839
0.0192001010652754
0.0154766069283399
0.0156204740496461
0.018900098098743
0.0201119801932552
0.016150412754077
0.0167160287753979
0.0197597909094266
0.0210513029251561
0.0204362152714315
0.0222383335807138
0.022547570015256
0.0208758873289414
0.0174712849392071
0.017313951361825
0.0208576229244306
0.0199128966313032
0.0162678457749617
0.0165699684398486
0.0204830299934595
0.0213622326915484
0.0173856489643436
0.0175366817479617
0.0212831007404908
0.0218425062963967
0.0178844016335148
0.0233641694108377
0.0238260304890623
0.0259616177288738
0.0233868716050506
0.018873601485315
0.0249824875254143
0.0259600589052963
0.0193759617431955
0.0197052614304318
0.0266002893053791
0.0262508327449104
0.0277917810094793
0.0250351570158274
0.0199078383576107
0.0191453465449481
0.0244450021857414
0.0246513041991839
0.0184988889584917
0.0180747102261421
0.0248510538992727
0.0255004179865409
0.0179941551019923
0.0178872062174408
0.0256342993640737
0.0257125858372713
0.0178795036077642
0.0194848230124271
0.0287972548244525
0.0285716807352098
0.0194426799996842
0.0207606152718847
0.030655848929792
0.0297620694407931
0.0204686685136535
0.0203389741920999
0.0296189385599235
0.028837656305392
0.0203685949771659
0.0199481339699006
0.0284546008777982
0.0294754210715381
0.0204635379874992
0.0211950568003189
0.0333770099889535
0.0325853582090105
0.0397640063374863
0.0323810350667241
0.0201647463691475
0.0194863892661576
0.0318908200356967
0.0312190885918078
0.0192938769155665
0.0189952636005931
0.0294607183544823
0.0273261451567418
0.0188779859830677
0.0179840444314306
0.0261950617087838
0.0248833551153219
0.0176793573563402
0.0168145480402019
0.0160753788663589
0.0154545368638555
0.0155063497910397
0.0157025423542262
0.0164471428237355
0.0240438527836615
0.025618447599936
0.0165368608560696
0.0164867470160902
0.0252938938684911
0.0248925897365554
0.0166458468629857
0.01660269186079
0.0246070797089918
0.0252967042548099
0.0175138050378236
0.0174566941170719
0.0255175758684393
0.0259256534078515
0.0174757888303893
0.0180518481885214
0.0264805747556585
0.0260118240264206
0.0181220067629785
0.0173172213284429
0.0246178029673977
0.0167208631004524
0.018577947450912
0.0276982185215194
0.0295083308712346
0.0195213111147709
0.0190338359342814
0.0285418797242234
0.0273944347277518
0.0177885957190009
0.0167503571377679
0.0282872869061482
0.0307795060988149
0.0163269086637396
0.0162197629988297
0.0281168002907091
0.0256235367644626
0.0160800288170199
0.0156150822963851
0.0234648146301625
0.0235578230480018
0.0156432256543922
0.0155555297397751
0.0216481174449024
0.0205352044513394
0.0152732068650814
0.0152784738907846
0.0205195963539784
0.0193056338044708
0.0152277505774048
0.0154878265614282
0.0199975240201158
0.0186644776468757
0.0154168666052407
0.0153956893785679
0.0185668848123346
0.0180698088568826
0.0151683215467578
0.0153179755698553
0.0180564551570948
0.0191197144246831
0.0153593251470962
0.0154570222261682
0.0203616503900586
0.020482379229488
0.0158015007073114
0.0163480959489558
0.0220342786615816
0.0222551901710996
0.0171528507296094
0.01819966769501
0.0236993855455105
0.0251535620625371
0.0190976714134501
0.0196243150557564
0.0275204676596631
0.0282753432693989
0.0199960515405931
0.0198438453515459
0.027162320523401
0.0282943301742105
0.020800222879735
0.0208305780030351
0.0289293890244857
0.0291534847899958
0.020265823642555
0.0207800116570968
0.0308082150112332
0.0320601419349376
0.0371263090963417
0.0323586356956148
0.0225348767131048
0.0228269338261558
0.0320678949367663
0.0307444441079101
0.022362573451257
0.0213940470227022
0.0291860708959024
0.0332555003923763
0.0296504483680485
0.0282648838064653
0.0308629982193446
0.0274102288662835
0.02130401003288
0.0208221677746006
0.0272705875826557
0.0273264010419726
0.0200891200998133
0.0195524690509608
0.0277481342008367
0.0285464813179452
0.0195766915398934
0.0194986931709044
0.0287407126365049
0.0309649716663341
0.0209330003817675
0.02096190965711
0.0310378554609668
0.0309645273028446
0.0208571661136938
0.0208549902110166
0.0307303066311273
0.0339658659531948
0.0228333012308179
0.0226938320678375
0.0338457488974336
0.0328953996864185
0.0223010901243287
0.0220334196302479
0.0325183097491127
0.0313468424408124
0.0214770336862052
0.0205905284713865
0.0304855513041881
0.0325570188264571
0.0211744943272627
0.0214193697831334
0.0352185886951649
0.0380352738146575
0.0216600168084977
0.0215242763135877
0.0383293191050867
0.0356890318386647
0.043869702152674
0.0344406376353558
0.0204836958792063
0.0196441885937412
0.0340503585874361
0.0338510678638331
0.0194459381039609
0.0190919479330031
0.0317740838603941
0.0301328040604763
0.0184918386809397
0.0182069342889906
0.028104844733495
0.0171911623487361
0.016497964292047
0.0162089754646995
0.0162998421838875
0.0157435934260253
0.0156687735061211
0.0156028000551189
0.0155606099939376
0.0153306280333912
0.015278759448971
0.0155796042902497
0.0250895872407045
0.0234639634002758
0.0154393084135873
0.015337500877073
0.0219274156846979
0.0219030654809823
0.0153350905427828
0.0156238838252244
0.0234459085387378
0.0215816561458945
0.0155561225750108
0.0154936206833886
0.0214793716522964
0.0203315683896556
0.0152521383514233
0.0155952050164173
0.0217356236297924
0.0218274191256776
0.0159746513307177
0.0170583989377065
0.024019589496567
0.0245795350841028
0.0176644102151086
0.0174957082062445
0.0232195629863406
0.0250053001578062
0.0179216869842489
0.0187671967857872
0.0257187364056982
0.028388537633769
0.0189356819557026
0.0200881479230161
0.0311461259742924
0.0320966642991969
0.0206815278425725
0.0228926113564016
0.0349039500334461
0.0399952454536442
0.0334741259298345
0.0353285126910264
0.0444293442465848
0.0387620493047493
0.023228700371939
0.0240055044760686
0.0387732396866357
0.0359849310089641
0.0247582286760748
0.0245317557240548
0.0357359009001482
0.0371851329012569
0.024776891148721
0.0255303440282146
0.0378639704060775
0.0380491650945638
0.025206776371819
0.0254499398019461
0.0384529444095761
0.0400758521439419
0.0257830469544476
0.025790729414488
0.0403096577960816
0.0409332571450786
0.0258383793819719
0.0258231477715806
0.0408637629261857
0.0406231225636483
0.0258207403426602
0.0256592210548806
0.0402710886564432
0.0395153262095553
0.0254667560555022
0.0251887211202764
0.0391902691701163
0.0385851843109906
0.0249054421768494
0.0237737313196178
0.0375420180450312
0.0347207902642243
0.0223596235316122
0.0227070522390342
0.0390269958816391
0.0439819626732342
0.0230628976268477
0.0234913434801563
0.0506330029612822
0.041193001802081
0.0218397239830297
0.0221184088522937
0.0451575317898126
0.044367314526292
0.0218396942890058
0.0207981488173732
0.0367269539644925
0.0487830880452792
0.039342004054296
0.0431179464528607
0.0537898345026651
0.0395165174121336
0.0211040729673382
0.0200990222470257
0.0390738492085743
0.0364308798361999
0.0197923376001236
0.019648720765757
0.0367494755294137
0.0343387241485098
0.0192157823223416
0.0186247045697675
0.0324406862635148
0.0317556924337855
0.0192401115284449
0.0190258156084435
0.0294920039702022
0.0171752071443757
0.0174010044336447
0.0168659649757968
0.0157773085404575
0.015836720307408
0.0156464342236989
0.0160434240505314
0.030969762129481
0.0282546549945655
0.0158910029685167
0.0157691137595703
0.02578584754413
0.0153870642842252
0.0151976423567826
0.0151919506119845
0.0154381029353894
0.0233957042726271
0.0255820381429852
0.0157144901191428
0.015697305500109
0.0255071302913768
0.023412358337232
0.0159671554429078
0.0164559495619966
0.025927324184119
0.0251552553416187
0.0172711794501871
0.0178681144500036
0.0256113898482749
0.0261987875165552
0.0185439378121506
0.0181114594636381
0.026249669100582
0.0269922872526521
0.0182037828923856
0.0184364423498389
0.0291532827533377
0.0310285661869949
0.0191844264024338
0.0204274327156795
0.0348786889960889
0.0332484973087079
0.0208238552864873
0.0209602120868908
0.0354520458882577
0.0375525392257893
0.0484506731518161
0.0426665408316235
0.023521421512234
0.0243903037231215
0.0436380335193501
0.041221683478972
0.0259722768186004
0.0266326484289703
0.0417056219168783
0.0449842820583069
0.0267286584152516
0.0267403256682806
0.0462870086248329
0.0466988981586024
0.0268712949510806
0.0273787113988794
0.0487457619643298
0.0493054582372712
0.0271609277589327
0.0274757629441674
0.0506411614667945
0.0511926054323629
0.0276179344782404
0.0280103916024086
0.0527522693325064
0.0545387626673351
0.0281917285672351
0.0282388703435566
0.0552517460173752
0.0553559000082694
0.0280876792104024
0.028371368372096
0.0558993916522907
0.0570354176888253
0.0283712728456544
0.0282827568751293
0.0570808887079455
0.0570148577498878
0.028341150652679
0.0283472559068336
0.0567000421629341
0.056275992114651
0.0284702682122303
0.0281861228187743
0.0554804770834899
0.0553100319096648
0.028206537486054
0.028062295497281
0.0542361376214424
0.0532803106827772
0.0280078064166505
0.0276469224638422
0.0518294438327593
0.0512971754271551
0.0274709524213489
0.0270998876931835
0.0499677729817981
0.0491096220032565
0.0269044286268184
0.0262889272158406
0.0473291791737492
0.0471922247609155
0.0260927336862704
0.0259766711280327
0.0417890264941869
0.0432815620355639
0.0265930677352049
0.0267549514408005
0.0436444396439819
0.0442593930864694
0.0271009604036425
0.027192591889373
0.0442700249717199
0.0450859579652151
0.0275580789461658
0.0275808439189123
0.0455802063458888
0.0462480624004924
0.0277745488838316
0.0277187051840105
0.0462767441340336
0.0467539317634894
0.0279562494133961
0.0278538266542107
0.0469092319859365
0.0471624606933568
0.02787073993063
0.0278382240802856
0.0471530186415386
0.0470919932756861
0.0278764482116738
0.0278421408565861
0.0463596957082757
0.0460499236689813
0.0276512523586139
0.0278111522328864
0.0460365838922039
0.0455247767195682
0.0277067443912672
0.0274930601222201
0.0440531020656783
0.0431857300871498
0.0271220056332512
0.0270595028000709
0.0430086816733575
0.0423873464576192
0.0267624463580835
0.0270878417295335
0.0422939302692151
0.040917639209313
0.0265847961957731
0.0268268184749749
0.0228664901530758
0.020483258366229
0.0179137488006854
0.0173706719873043
0.0166260955617707
0.016476213606846
0.0159051887322465
0.0157882361056142
0.0157547458578697
0.0154965257112073
0.0154185281464244
0.0158622240937484
0.0279424465005499
0.0281003901034101
0.0159500064309635
0.0161468199222735
0.0309563187155447
0.0286630842315297
0.0167894244314849
0.0173486221226063
0.0284467514576381
0.0268331318405576
0.0171998604833829
0.0182357366084798
0.0278491589364434
0.0285531743227628
0.0189508002186801
0.0184207754847894
0.0283358304773358
0.0305928837930705
0.018609484740105
0.0186833742732598
0.0313468366270541
0.0338760285506197
0.0195249848016791
0.0210711180103963
0.0392672482423975
0.0374822047229188
0.0214945837574171
0.0246657900261659
0.0403047843699989
0.0534832046411617
0.0468954090245001
0.0496481271337987
0.0248364007682675
0.026423969791832
0.0481627851819806
0.0522997593352502
0.0271220772917968
0.0281847200068437
0.0556887966931204
0.0583916581944847
0.0282783281685449
0.0282636706057839
0.0620102762156018
0.0630304309783672
0.0275919708894048
0.0282404068951765
0.0656820681220778
0.066783287371488
0.0283252888228083
0.0288074310789584
0.0692614301320414
0.070751013441141
0.0292617235150869
0.0297808679542887
0.072909509157452
0.0744290859206025
0.0300754244233819
0.0302753258973451
0.0747872359471394
0.0750359463732732
0.0303513534233608
0.0308196828433981
0.0760571064231213
0.0779042886061004
0.0307861138030592
0.0307010984809457
0.0777548063183495
0.0775070448301893
0.0307972494384493
0.0307020011336225
0.0772510700502561
0.0765333555165345
0.0307670819283744
0.0303574445535111
0.075550845015873
0.0754189065574008
0.0300940191495805
0.0297817316162956
0.0745990022971191
0.0733220197475959
0.0295151008505662
0.0290723169553416
0.0711220304462436
0.0690041727525503
0.028624069011297
0.0280785366513696
0.0664985402971465
0.0658169127677735
0.0277156288296497
0.0270048117436027
0.0645374798629685
0.0568815516752625
0.0259447745009828
0.0256914625467013
0.0509733293397424
0.0454919515970697
0.0242383144641236
0.0247444777652472
0.054896878916648
0.0675664064628587
0.0252599690914246
0.0258268033580177
0.0868022145781032
0.0592057850625721
0.0239135309238904
0.0243359740019778
0.0713565948444643
0.0490524048085833
0.0222670619412289
0.0225045439864476
0.0548565255897224
0.0521090125391541
0.0220986346889478
0.0223429190956857
0.0617991986726766
0.0483979483742791
0.0598752543374322
0.0429840904049674
0.0233102493623723
0.0218686184727328
0.0419957282516827
0.0433381290415203
0.0215365839864431
0.0203274910030239
0.0412121718772254
0.0373052261972587
0.0193461948371984
0.0187378902542452
0.0350427109855824
0.0342982786583284
0.0193166168131065
0.0197842658136501
0.0350905069444181
0.0321354709522308
0.0197580278737068
0.019169058640686
0.0310842634617566
0.0289889114249812
0.0176048254083697
0.0176600893184099
0.0306993111721155
0.0314617016382911
0.0172930562371235
0.017445648017723
0.0342376074001531
0.0342409843340081
0.0162298728278652
0.0158440062777009
0.0289008190673873
0.0268216606066459
0.01572625861399
0.0157269615695553
0.0266772502632604
0.0249729830003278
0.015578315576419
0.0152760715867858
0.0153773398286747
0.0155503472285922
0.0160450624826877
0.0305893129249356
0.0338456749417181
0.0163105649418334
0.0175233270933026
0.0342721960894817
0.0317817618886416
0.0174972445359905
0.0174372947444472
0.031569002378494
0.0298413250937509
0.0173229382107859
0.018518606077817
0.0329236354279722
0.0303368459642545
0.0183897889302309
0.0191055185266186
0.0312268079725605
0.0341813866993528
0.0192162822301865
0.0187782885226282
0.0330328606544032
0.033779389521622
0.0189028493923927
0.0198506357669518
0.0371120946440905
0.0442187139149519
0.0214188458832807
0.0217952195486198
0.0424334402272632
0.0475210381781748
0.0675394319559148
0.0574449268140486
0.0254100824751685
0.0256048754112115
0.0661049699600186
0.0699299433023747
0.0273252930643284
0.028050364432361
0.088723746975156
0.0968857556268984
0.0289188967533982
0.0324281039244459
0.135627424592006
0.136489888029769
0.0326233990712647
0.0339613288474686
0.142824400997532
0.156374512212342
0.0381188156534595
0.0445000313451943
0.156113491120812
0.179420788033208
0.0495305206901105
0.0505885141112739
0.187647944588274
0.191844657366272
0.0503101075571604
0.049458609274905
0.192348408241295
0.193143423698838
0.0495919164866528
0.0492179333344471
0.191549911266411
0.190645417104109
0.0496963146072488
0.04929075321645
0.188004736507718
0.187473051065167
0.0497397309984018
0.0494127812806311
0.184794295311787
0.185327829037238
0.0499009313851911
0.0496309922736685
0.183932914946291
0.185921228645062
0.0502385749265549
0.0503100408630763
0.186156253277341
0.188881778785314
0.0508904955151352
0.0506300505391396
0.192944809622935
0.194354649716141
0.0506613012882681
0.0503884732138992
0.192404202649382
0.191557109060004
0.0505602544299133
0.0508869348486654
0.191372801884907
0.190418689757116
0.0504713781885223
0.0506850590497467
0.192213931560761
0.190581651297477
0.050273243399577
0.050834317805572
0.191718574844878
0.19001877323607
0.0503211003597957
0.0504619246638068
0.190706330350175
0.189656946686217
0.0499224627670007
0.0502370433428465
0.191915269205357
0.192216231563255
0.0497704608761357
0.0501543412426117
0.195553325476623
0.196947190053385
0.0496568043006976
0.0503013034691394
0.19988983384735
0.200210959472916
0.0504403938868075
0.0514972095819823
0.200073218858708
0.19541427122793
0.0517242354811676
0.0504485479555839
0.18610782725038
0.160844290577283
0.0452318096875766
0.0393175405063468
0.16211481144017
0.152369565723962
0.035479152097387
0.0323801627146549
0.14993403732474
0.101701663675693
0.0274123784192598
0.0267459176180434
0.0843047506121608
0.0732690692257855
0.0264233126645214
0.0260108049869451
0.0635962407239243
0.0774880034294185
0.0275439948582272
0.0288571667323176
0.0940154830875894
0.11731280695344
0.0300627082578714
0.0331141423628703
0.117354097388186
0.121584230287713
0.037176229558336
0.0438396876827412
0.137969211980255
0.147668270638729
0.0495087345957427
0.0506656936564404
0.15323173139442
0.157575838361852
0.0509965752487474
0.0495424130450245
0.159810492237596
0.162133384838868
0.0494639650793731
0.0483636252055785
0.160745419035911
0.161559885392241
0.0490154642939263
0.0483525045908205
0.159063387172257
0.160211956769131
0.0489615682050607
0.0484414998771735
0.158195551072404
0.159953662911865
0.0490892726414766
0.0488186436665331
0.159354396184294
0.161218377939082
0.049438299411956
0.0487842612035553
0.160674255736718
0.162021417617825
0.0492637110593738
0.0490107621378331
0.160627806369526
0.161534674642459
0.0494300299149605
0.0491053711718565
0.16180132514617
0.162107332063847
0.0489714622322551
0.0492374133862268
0.163578686085968
0.162764076373263
0.0491568878725394
0.0494230259608404
0.159159648186097
0.157135536477928
0.048821311268034
0.0488082049488278
0.156673205281441
0.154773830957956
0.0481473580993115
0.0485547087529474
0.156035942267989
0.154682016620088
0.0479556919503477
0.0484689176348245
0.157023218073813
0.156094987061858
0.0478887710268704
0.0485618732247127
0.157902077372958
0.156828447007167
0.0479469903597421
0.0486911398391578
0.157029388867614
0.15411947431255
0.0485169643425898
0.049807990003227
0.15190128697846
0.147826249207596
0.0495938924111623
0.0485451283104719
0.14288082894792
0.133914742093922
0.0431313712825609
0.0358556105152808
0.119092607423602
0.111061831445891
0.0414269891899663
0.0457678421213299
0.116564141292713
0.119780639534247
0.0466079005238839
0.0474233615034551
0.122857421754289
0.124171440032676
0.0463534925313246
0.0471776945002229
0.127012715678019
0.126985944425931
0.0462076813824157
0.0469487170678517
0.1294010090554
0.128189480317009
0.0459160432887796
0.0466756823746365
0.130094548625495
0.128037921284765
0.0459273050800306
0.046662553423007
0.129789081962113
0.128732542266301
0.0460984515162433
0.0468001460601314
0.130331388797345
0.130992797150544
0.0467531633019107
0.0473638333528796
0.132286903065814
0.13541190287531
0.0470890486633358
0.0472151213318935
0.135898205875926
0.134814514361545
0.0469580394480913
0.0470410806511487
0.134736609860683
0.134431739399039
0.0473540143152463
0.0469615040468709
0.133768523966334
0.134790439203093
0.0472506323309743
0.0467094616448511
0.133702127985264
0.133811495839651
0.0474711365454344
0.0467304589301032
0.132109795993445
0.132580094312104
0.0471573397219548
0.0463802808493493
0.13051222971368
0.132325315454687
0.0471660344774222
0.0463535182100825
0.130209603141682
0.132142075594473
0.047415542910245
0.0466184666869628
0.1298000196524
0.131103831985755
0.0479595559248365
0.0472640879861506
0.12849897987331
0.127059573227202
0.0484681347025609
0.0475525376551256
0.123792747768
0.120180270281421
0.0467024649301247
0.0421058400877361
0.1143534330807
0.103575577794012
0.0379604331118704
0.0328037931569065
0.0950404278919912
0.0940332582233082
0.0306224882703055
0.0287907194874663
0.0780434677958144
0.0791273458151375
0.0294050483792752
0.0302317840617156
0.0828807599147668
0.0862244339095507
0.030562207839475
0.0392948657094614
0.108501147150861
0.112100322761404
0.0389770204678128
0.0386502139422315
0.112897681944827
0.113091085129508
0.0385789702839346
0.0386714604467119
0.113186706109017
0.114401452505323
0.0389571498201778
0.0388044815060833
0.115513261664602
0.115544612532505
0.0388923555298629
0.0387317719661169
0.116101702517778
0.116704103796319
0.0388573284174956
0.0389690861751577
0.11344769457269
0.111684826942665
0.0385202242560398
0.0383938716136186
0.111209712666329
0.111363147922962
0.038320065432392
0.0384553464041047
0.1104980910096
0.108402250624887
0.0385151719613661
0.0387140474366088
0.105117971847362
0.100665724765337
0.0372295454182687
0.0318416879171416
0.0939008670033573
0.0896940787963377
0.0292874714381256
0.0316638133951061
0.111313016601628
0.108090291535504
0.030713123646679
0.0302775719983783
0.106564872297463
0.0805023078051265
0.0284498344025869
0.0275824901397997
0.0665718528402691
0.0696724127165221
0.0282922229390748
0.0292344949714539
0.0852743978103704
0.0879440030117623
0.029173382613944
0.0285242143312888
0.0728416306734339
0.0742956419393777
0.0281527954148918
0.0290057384973163
0.0782944498332418
0.0804321880445338
0.0298096838338526
0.0302639646898446
0.0837304933716132
0.0855382614782151
0.030508560882079
0.0312671634325243
0.0865417225348419
0.0868050205823423
0.0318052642916726
0.0321832748906874
0.0864571923108379
0.0864546443645723
0.0324408619772813
0.0329894628645204
0.0876227983675042
0.0896495178648692
0.0329847598951141
0.0329034274876064
0.0893986312076013
0.0890705442708791
0.0330058855214531
0.0328647138792747
0.0888289376287284
0.0883133253535908
0.0328317894687918
0.0323302874479755
0.0876247987615653
0.0881222765901456
0.0318377393802071
0.0312602685269906
0.0884492524429554
0.0885613758154326
0.0306933159669169
0.0300831101128998
0.0268213001860343
0.0263744409324781
0.0258524543047939
0.0252390785428477
0.0233810455717415
0.0232141720335667
0.0228734251713597
0.0225591994136142
0.0201156067068203