/*--------------------------------*- C++ -*----------------------------------*\
| =========                 |                                                 |
| \\      /  F ield         | OpenFOAM: The Open Source CFD Toolbox           |
|  \\    /   O peration     | Version:  2312                                  |
|   \\  /    A nd           | Website:  www.openfoam.com                      |
|    \\/     M anipulation  |                                                 |
\*---------------------------------------------------------------------------*/
FoamFile
{
    version     2.0;
    format      ascii;
    arch        "LSB;label=32;scalar=64";
    class       volScalarField;
    location    "500";
    object      nut;
}
// * * * * * * * * * * * * * * * * * * * * * * * * * * * * * * * * * * * * * //

dimensions      [0 2 -1 0 0 0 0];

internalField   nonuniform List<scalar> 
162506
(
0.00149794127613624
0.00155235119523577
0.000102987368829522
7.88007358924559e-05
3.9261169975912e-05
9.52642412089865e-05
0.000460219351327063
0.000530893736296005
9.31985595856402e-05
6.34527530252089e-05
6.95896554773855e-05
0.000885912097528146
0.000936993237716566
0.00130187239122545
0.00293166826697528
0.00332116560574205
8.95290180743712e-05
9.28913105021901e-05
0.00132954138442363
0.000677641653100593
0.000910833675089663
7.98738337954783e-05
8.51391964390032e-05
3.87258090764484e-05
4.36015050127764e-05
6.12591383274073e-05
5.67986660827068e-05
0.00570458491098093
0.000106155037988114
9.8201291862936e-05
0.00813371467513914
0.00772183303580802
0.00496188144796531
0.0104499519672424
0.0150001159200375
0.0149413143885463
0.000100603941029803
0.000109813374104358
0.0106578582120198
0.00846678028798541
0.000113129974744686
0.000110713583085708
0.0051063794931711
0.00458296018993953
0.000110748144287971
0.000110631029413492
0.00324981109439639
0.000815478153534593
8.70916609801142e-05
4.53258164546167e-05
8.5177354097786e-05
9.13397566311354e-05
5.00795358136391e-05
9.64904664427283e-05
0.00116124733010596
0.00128205548584745
0.000101217671496936
9.79040940064187e-05
0.000863666722440495
0.00214229685283526
8.25011975684904e-05
8.17068583458892e-05
0.000955060635704409
0.000819815162962515
0.00228432803761591
8.06792297970317e-05
9.25369031105452e-05
0.000109623532014557
9.78213443004553e-05
0.0043497732152689
0.00283519919920587
0.00418242930318412
0.00593875328876598
0.0035294716017861
0.0024743659681947
0.00192497523733791
0.00167944115554471
0.00334084645400035
0.00298453629234683
0.000102683068869836
0.000113684938824208
0.00530402821725647
0.00507084478345153
0.00827118683570949
0.000102931624770142
0.000112842931838193
9.99221491886264e-05
9.02209158579032e-05
0.0101064268385156
0.00566240706858544
0.0131106000296331
0.00962145308720535
0.0145335103985265
0.0125353936928859
0.0087125221957108
0.0116644262253851
0.0150003105170843
0.0150014780355487
0.0150016935135255
0.0150004401794358
0.0150003373495104
0.0103864922518545
0.0109438053448058
0.000109774113350911
0.000100687873538022
0.0149430620431559
0.00731976999723491
9.82866323895626e-05
0.000107008792229115
0.00569915073646084
0.00570625091353392
0.000110705145942203
0.000113663823828895
0.00931352936975832
0.00803724159392331
0.000111182615495368
0.000110077445018057
0.00788317253283266
0.00485710421543009
0.000110957113879433
0.000110720664973087
0.00380637389576242
0.00334373549800847
0.000115617315197842
0.000112467358597339
0.00230432971449942
0.00112593964568475
9.70042291815118e-05
5.41729932233965e-05
9.4276108342842e-05
8.76794673437003e-05
4.83556192113634e-05
7.64274448146789e-05
0.000744308075178985
0.000702829310138812
0.000112257175180361
9.67107772436755e-05
0.00131431041718737
0.00219555141753121
9.34320537711869e-05
8.75989658463781e-05
0.00271999266922874
0.0037374066149314
0.000107806537378224
0.000106072592541014
0.00351666451636054
0.00824548329395688
0.000106406390358618
9.81121423629305e-05
0.00480105226601459
0.00692080772145805
0.000104860798522539
0.000102389210522079
0.00802706170973165
0.00709552929511169
0.0110151842911626
8.65933630721867e-05
9.6009349403229e-05
0.000105912776563273
9.4271094684313e-05
0.0149278962663156
0.00818256704697834
0.0150011146914026
0.0150007002027
0.0150003449012588
0.0150008108135456
0.0150010925745739
0.0150004688286397
0.0134274593315787
0.0142010131857549
0.00869063458902445
0.0104575199966617
0.00703932493059359
0.00489614533804472
0.00126317868305717
0.00278950805225612
0.00312935713854057
9.01385527644842e-05
9.62965868426396e-05
0.00143536796921729
0.00168863782635305
0.000103017393626052
0.000110804479723682
0.00318626768270489
0.00532053225812939
0.000110969244898113
0.000111896940017219
0.00415790382362
0.00515704714073114
0.000110580805718729
0.000108170746344006
0.00276232666819691
0.00275079848061106
0.000105271225889333
0.000108595682628312
0.00251924565890599
0.00135827935774923
8.98328394881228e-05
9.46440479509587e-05
0.00138342204135196
0.000726054216733013
8.71468306366889e-05
8.64063231849154e-05
0.000720583500166183
0.000611261218565131
8.03590059107739e-05
7.61482594406995e-05
0.000697564032241726
0.000640609958268111
7.77312212025347e-05
7.31249378803817e-05
0.00081547190034016
0.000588153975359443
5.39923498355843e-05
5.2131076367506e-05
0.000510211722060221
0.000618255667576434
6.46512794318785e-05
5.75201926219288e-05
3.3209545193745e-05
6.77547370248478e-05
0.000603913382939632
0.00054031243297732
7.23285534949667e-05
7.24059970568381e-05
0.000492132438039285
0.000480884293015262
6.02984355790867e-05
3.5893841409836e-05
6.82100447344395e-05
7.43997088684232e-05
0.000383905882146947
7.05468054815307e-05
3.37080956658417e-05
3.50670647858491e-05
7.4390261678278e-05
0.000504014307692179
8.75696982474451e-05
8.46187991340335e-05
0.000561197583773827
0.000969184400010444
8.65227254109601e-05
8.63011358693887e-05
0.00153093442521923
0.00208148382830212
0.000110618018468619
0.000109308746326869
0.00293966488792819
0.00432718732676872
0.000111646574701486
0.000107227265480006
0.00703088346022178
0.00436780585625442
9.51579431990938e-05
9.55668490447463e-05
0.00442217243486014
0.00496043489312478
9.77718391108094e-05
0.000115482350369355
0.00894252267134483
0.0113981298139077
0.000114554726851343
0.000113471037572749
0.0112431773624389
0.00701947666734996
0.000106435003859519
9.44094018357756e-05
0.0149281214540119
0.0147862443469694
0.0132771932824535
0.00587754580930767
0.0116693901771092
0.00941391778870735
0.0122215792036995
9.55657625904389e-05
8.7003930182461e-05
9.01435858724595e-05
0.0146879280516745
0.00536376127657972
9.95849707096241e-05
0.000103669206194891
0.00671265455530729
0.00564368967274794
0.000113321772207005
0.000102798387137625
0.00279459685043217
0.00295197913615234
0.00412983532516883
9.71561554656196e-05
0.000110734824231422
0.000113004975969162
0.00010284433154863
0.00766034738894522
0.00509329204602781
9.10188643593668e-05
0.000831317741758655
0.00235089177518693
8.14040716666816e-05
7.01137395294571e-05
0.000880449769911451
0.0010190535744334
6.3779240647215e-05
9.47446820144829e-05
0.000531939013447259
0.000455043050019404
7.79975069353546e-05
4.00560227012739e-05
9.87572591288787e-05
5.99527203409713e-05
6.40393281868453e-05
0.00092747563424974
0.000680671005894126
8.46162755734308e-05
8.2899526246225e-05
4.37521130838761e-05
3.95214579208329e-05
8.37551033425044e-05
4.57509289590358e-05
8.63678557408966e-05
0.000777677436518986
0.00087562714091253
9.75012816056404e-05
0.000103776626255717
0.00128198028497282
0.00117336322826294
9.25375361814382e-05
5.03680605984277e-05
9.5390452199708e-05
9.68421082260154e-05
5.38084470503209e-05
9.33017371783145e-05
0.00115148302916491
0.00236258945801178
0.000113797636259286
0.000106889681878511
0.00267082202810721
0.00135425317328587
9.44111321477297e-05
9.52153141578855e-05
0.00128829104001623
0.00135055388427212
9.68180552605112e-05
6.47649348728037e-05
0.000713232456595832
0.00042274155728894
5.19423227843116e-05
4.29922393571426e-05
0.000289038108593025
0.000373985086212901
4.75849737926662e-05
4.21702289290797e-05
0.00028799411774337
0.000385729687063406
4.75422033014093e-05
5.37198166918669e-05
0.000514018741477526
0.000622994951881956
6.21427374928516e-05
3.35244117435938e-05
5.229800513467e-05
5.30210776573406e-05
3.8305508382424e-05
6.54538673836955e-05
0.000391933741704906
0.000488609540466757
6.6606726784996e-05
6.29143559502236e-05
0.00086481627667157
0.000419054932376146
5.64768257502958e-05
5.08477052387555e-05
0.000383961948640649
0.000313605212068252
5.87186430082985e-05
7.29514337347444e-05
0.000428186210951486
0.000826621152532807
8.04555215983494e-05
0.000110107356457547
0.000836736324624996
0.00131658512064843
8.93615925255433e-05
9.55049999305147e-05
0.00156194752586321
0.00262395227627709
0.000113736776327698
9.82826583942957e-05
0.00289857922573678
0.00413465266858823
9.60104072322984e-05
9.65822579296846e-05
0.00413526782168995
0.00489851988578633
0.000115131095545337
0.000114694651276664
0.00793505062933751
0.00792056434358437
0.000115010858587319
0.000114997568446435
0.00894415454621696
0.00493981475557468
9.64754032656303e-05
0.00010026100198372
0.00754363624351988
0.00319977723834635
0.00774590496288309
0.00777232561062985
0.014737405408675
0.0119582895743807
0.0105068794103819
0.00880000143359474
0.0115706197219281
0.0134231149835167
0.0110915587956259
0.00476621865021342
9.85265771815036e-05
0.000105250323955888
0.00819974250462319
0.00341709291068711
0.000105877415545458
8.30658384599188e-05
0.00205767531511676
0.00290554081869503
8.69782754060143e-05
9.2777076655234e-05
0.00256140062138198
0.00136866834989777
9.76277534956279e-05
0.000109871294385253
0.000729960278232784
0.000824695902967176
8.52825619547463e-05
4.67738869821889e-05
7.71403685744958e-05
8.44132849302335e-05
3.39681946026967e-05
7.08160121925019e-05
0.000540623706751247
0.000635620176513895
8.54454956609819e-05
8.61072641116356e-05
0.000724605348889454
0.000668572837675244
7.98674234017056e-05
7.57768086504101e-05
0.000586184242846929
0.000545839640928278
7.63902764023891e-05
6.32726847256382e-05
0.000374521682912233
6.72108082251846e-05
3.27113385708563e-05
3.26997433321452e-05
5.57589811598531e-05
0.000389157541721811
6.15303789976123e-05
6.38158105325532e-05
0.0003226198181527
0.000411150431798464
5.45935673633272e-05
5.25699679856455e-05
2.81033692132683e-05
5.04982113478798e-05
0.000424513153033612
0.000489064588038296
5.7262276559168e-05
5.31296671047358e-05
0.000409131279500022
0.000283404235375826
4.34201574052293e-05
4.00531944978431e-05
0.000259970801684891
0.000246013401931077
3.81437638256679e-05
3.92170361915295e-05
0.000250231468131525
0.000184686854054865
3.64240344873098e-05
3.56100678039612e-05
0.000214251201465769
0.000177784722237704
2.96892763140578e-05
3.73501180178347e-05
0.000190614045516542
0.000259694701131022
3.74599370504403e-05
4.28591775619539e-05
0.000295444777667338
0.000342821801077502
3.77770208513906e-05
4.47294864163876e-05
0.000325522175806663
0.000277125509592381
4.33091803124224e-05
5.5310285352025e-05
4.28222040730792e-05
7.00731494565607e-05
0.000312010386502808
0.000380661239952299
7.3661676727712e-05
6.74616924524037e-05
0.000448744955207456
0.000507189944024177
6.27821415849798e-05
5.64004323227142e-05
0.000444771324457478
0.000432321397252471
7.55782395724085e-05
7.25333690269791e-05
0.000491266528948721
0.000494378921647835
0.000610944256741887
0.000492828328851659
0.000304292923815599
0.000435794739849438
0.000835380837310698
8.29704440330745e-05
6.56635749308802e-05
0.000577812403573421
0.000364050593129169
4.64307096011692e-05
5.11115024793384e-05
0.000461577047960864
0.000754172874051066
6.36776614926213e-05
6.79968995759984e-05
0.000474041331457639
0.000390493029777647
6.02725462738258e-05
5.44083692601015e-05
0.00033382210429531
0.000336747658477268
5.50321204720224e-05
5.3054470160129e-05
0.000499969413915262
0.000950561236227811
7.45115138567525e-05
0.000477852401457071
0.000714730869287316
7.38004833878732e-05
6.30551057862773e-05
0.000583411379508794
0.000505602085859827
6.066154761618e-05
8.15233603762201e-05
0.000380524468333259
0.000461479236908724
9.74556741900753e-05
0.000107541590543851
0.000651527058844483
0.000663970234975826
9.36365705947047e-05
9.22747401524223e-05
0.000973596225148024
0.00178104423077601
9.22432664651846e-05
9.66578679639677e-05
0.00172998752100829
0.00304990539862205
9.71819801475413e-05
0.000114942029371778
0.0027522978243641
0.00283589206569345
0.000115301277219072
0.000115421259637477
0.00519661595122188
0.00411909233094151
9.6919731959946e-05
9.57612258010492e-05
0.00440127091421406
0.00435112234067999
9.59396202189387e-05
0.000107233750558519
0.00760984096235208
0.004122776763451
0.000107786457298371
0.00011284072859417
0.00320561091088781
0.00234618219586567
0.000110581940262415
8.3314669133042e-05
0.00187484347385966
0.000896910840764752
9.17484959753186e-05
8.11814746623977e-05
0.000521337374892899
0.000299573315305735
5.48839705929114e-05
5.80988432893086e-05
0.00079214897189421
0.000560321890455497
4.65032112845617e-05
5.68057282325611e-05
0.000797948380527238
0.000585226929168856
5.464813471412e-05
5.32593269817327e-05
0.000417848391824456
0.000423448073710385
5.47447785170567e-05
5.40133684524112e-05
0.000430746582570604
0.000389016722010725
4.96029531786424e-05
4.82800528022305e-05
2.61095154222292e-05
4.10122442785184e-05
0.000285058736955377
0.000243807690121927
4.25235776358282e-05
4.55153663253545e-05
0.000224933716584135
0.000334843812348189
3.98322040908546e-05
2.46642466558931e-05
4.25842041759705e-05
4.49175926937845e-05
2.66136784453019e-05
4.53855816352656e-05
0.000428972232583411
0.000443407091603918
5.31888636927975e-05
4.36767715169168e-05
0.000306362326227124
0.000217368903117141
3.63241640618475e-05
3.85338700641413e-05
0.000182567685228172
0.000174538431784377
3.72483027895203e-05
3.26571407975023e-05
0.000129745605348284
0.000127929357667161
3.19839308822369e-05
3.07497770520831e-05
0.000153154536496274
0.0001474209322703
3.34303046892945e-05
2.62218024616452e-05
0.000126324272110703
0.000140748133961169
2.41625159622843e-05
2.97978402732498e-05
0.000168840647136751
0.000213660860376966
3.02075388124714e-05
3.56882587223377e-05
0.000242983957314773
0.000263750300121457
4.08056425403457e-05
3.3534533593596e-05
0.000246925320400335
0.000212337222306036
3.78859044104496e-05
3.89911403668474e-05
0.000204379677854305
0.000265569637869429
4.76951643205229e-05
5.94075201012558e-05
4.76908991937416e-05
7.56766450841571e-05
0.000303419534362346
0.000370113963189711
7.98132260193467e-05
7.31556908512075e-05
0.000430664830049138
0.000575445597868685
7.03113276831746e-05
8.11329458689834e-05
0.000556443152266311
0.00043912441931236
8.01584581632418e-05
0.000373552770724171
0.000294650045297854
0.000184216322783022
0.000124823625592885
0.000137443327957931
0.000211785142577516
0.000223325180375479
0.000156915035922284
0.000281611224151898
0.000472904748950034
0.000651855490784308
0.000108924411840504
0.000110074570082477
0.000962902084190551
0.00158500190799293
0.00011329199850226
0.000113805653491606
0.0015926383246174
0.00170018369387469
9.76761754500574e-05
9.76064154981769e-05
0.00316768325026391
0.00304042289176565
9.69282600689817e-05
0.000115199570737753
0.0030376869092419
0.00171312603214749
0.00011108628292846
0.000112593098406562
0.00129355276559631
0.000935928691015868
9.50866472660666e-05
8.26680699100914e-05
0.000963443745592933
0.000411938251933961
7.35863964667018e-05
7.27864853425331e-05
0.000426025624946702
0.000409514106338602
4.15984285785913e-05
4.91317814346555e-05
0.000463959983371383
0.00044467547897777
4.79838651624239e-05
5.22933167613983e-05
0.000328477302270307
0.000287786384858574
3.93076293371415e-05
2.58740720180435e-05
4.45136575745126e-05
4.64298294823086e-05
2.96901034817038e-05
4.12245791869165e-05
0.000233909717167419
0.000200627221145373
3.53510339047594e-05
3.02165284758102e-05
0.000230028168615022
0.000189681407204798
2.84164553662639e-05
2.34399138129691e-05
0.000175260349301425
0.000148537065073529
2.27995798906151e-05
1.74648248633873e-05
0.000125641137258661
0.000111465451247475
2.22452804143244e-05
1.82597767414185e-05
0.000107201279112372
0.000108809840022069
2.23858430972911e-05
2.32821501303217e-05
0.000107685800041814
0.000106155189659269
2.29547454172457e-05
2.24757343638356e-05
0.000106197404501306
0.000107994540469604
1.82119165916627e-05
2.24203340459093e-05
0.000117417827556467
0.000135291331049946
1.78708533041877e-05
2.32424516808968e-05
0.000155095947950277
0.000189124588617725
2.53646929868852e-05
3.0906719508321e-05
0.000212830694327517
0.000181936931317659
3.07996717188259e-05
3.30218074617679e-05
0.000175323561566161
0.000160843486314485
3.89777762491044e-05
4.30141173344314e-05
0.000196535245856199
0.000204897526781858
4.97816155307031e-05
6.1242189788724e-05
0.000292927170869345
0.000347962267199946
8.32151957077274e-05
5.38943033360158e-05
6.98019937159667e-05
8.08310120266963e-05
5.87371819851136e-05
9.37204242243419e-05
0.00044603110720433
0.000548495728984777
9.57916256251003e-05
8.75191344333998e-05
0.000419002910054868
0.000454662340959005
8.08772867786136e-05
7.61923010405812e-05
0.000495695886482471
0.000570196266826384
7.95979459148342e-05
7.68606127316572e-05
0.000570811495877269
0.000522104793845442
7.24936870770578e-05
0.00050783272040503
0.0003608576710223
0.000410897180310306
0.000383244976520895
0.000434802997464837
0.000508629417068321
0.000626701323744619
0.000111635257182223
9.7997127838351e-05
0.000761039847647413
0.00105713333857046
9.56965685879347e-05
0.000816293060793462
0.000767035019385043
0.000720903115307395
0.000944632315936772
0.000110150712065413
9.55755295835086e-05
0.000977290606369001
0.000973060755069464
9.27781073850172e-05
8.84704381995171e-05
0.000949099750780196
0.000595254585549722
7.66608142667789e-05
6.59894745880454e-05
0.000713693815473433
0.000639848118937783
5.96310793200233e-05
5.95929031593674e-05
0.000727272666540971
0.000593305455844609
6.46315107547273e-05
6.52882127172084e-05
0.000429461422655889
0.000345217004497429
6.14278465163179e-05
5.35105623531329e-05
0.000332299215360055
0.000304326762380185
5.120481524011e-05
5.02241949349527e-05
0.00025575565532678
0.000220469427737323
5.84151561035264e-05
4.90972684186746e-05
2.98416437843975e-05
4.30253306523493e-05
0.000216305905728967
0.000181917989830257
3.62283673755285e-05
2.86780930856831e-05
0.000196967109229065
0.000190358285560521
2.44242218619636e-05
2.08113796181205e-05
0.000129763949395365
0.000145657090700048
1.61640844206565e-05
1.79013243069598e-05
0.000132796525990813
9.69737006674036e-05
1.9921349945552e-05
1.60166901079324e-05
9.71006275766714e-05
9.48058534227092e-05
1.92186230657898e-05
1.67077638703069e-05
8.56654535375021e-05
8.06460830774806e-05
1.90517774087052e-05
1.69406045260665e-05
8.35058239043787e-05
8.96777206095564e-05
2.76240348887004e-05
2.08064984454592e-05
9.73489854583367e-05
8.17958892589789e-05
2.49313771986937e-05
2.61646129616161e-05
8.68815450476717e-05
9.39008674275436e-05
2.98882335491433e-05
2.78340055796615e-05
8.95287052564182e-05
8.61601724072323e-05
2.08773918018368e-05
2.47960530012189e-05
8.12983991277653e-05
9.26935804414547e-05
2.03169913606089e-05
2.29970289463318e-05
8.94929237748569e-05
8.32728083356266e-05
1.65625755660994e-05
1.73275669297799e-05
8.32352137543934e-05
8.76902455335508e-05
1.7058597334948e-05
2.06648390786879e-05
0.000102426088310049
0.00010957552461039
1.66280991081244e-05
2.03696952247321e-05
0.000107177529162715
0.000145999289140219
1.86441290784788e-05
1.78524811127494e-05
0.000182446046652868
0.000153828720211501
1.86637164751369e-05
2.08186295882534e-05
9.63197822480797e-05
0.000102235191493368
1.57670248383626e-05
2.25218630871255e-05
0.000104240665955812
8.97621577974174e-05
1.8124112784465e-05
1.78713748841564e-05
8.17890199567125e-05
7.96595074286339e-05
1.67276399540971e-05
1.97033253151452e-05
9.03685153427538e-05
9.61992468378904e-05
2.0805339703838e-05
2.49019696612432e-05
8.49365494155519e-05
7.93076484239932e-05
1.95833190285618e-05
2.51956588347677e-05
9.51130991270148e-05
9.82050181887181e-05
2.60261114017532e-05
2.46704565415687e-05
8.74944775490295e-05
8.87912312326752e-05
2.60163273780906e-05
2.0860229322689e-05
0.000103862602684712
9.41054921006217e-05
2.10922100113242e-05
1.63211810724593e-05
7.89847742122824e-05
7.92246873215737e-05
1.83478653357692e-05
1.77154162103763e-05
8.82165145403145e-05
9.60434443830628e-05
1.99211526100207e-05
1.56415152341389e-05
9.13399112945648e-05
8.88700122318987e-05
1.97503485710073e-05
1.85103259736775e-05
0.00012695177700681
0.000160825817700766
9.15832162068636e-05
7.98570359215029e-05
6.09999982077845e-05
5.94199553700134e-05
5.97058684053769e-05
6.74095545866022e-05
8.7201508216605e-05
0.000126577650340264
0.000248311939205063
0.000334363860683067
0.000499020421409545
0.000653288648389273
9.51429478247667e-05
9.20574823671183e-05
0.000668812484274473
0.000555345518640145
0.000100817015188336
8.19061930677964e-05
0.000493338778002882
0.000429931468090178
7.27323208187576e-05
7.00759465514617e-05
0.000460637664941802
0.000472218048767378
5.75394513972873e-05
5.61340551635568e-05
0.000519654210813648
0.000409999595277082
6.17339988468508e-05
6.59700378278509e-05
0.000358329146804774
0.000297271655504844
6.49485159723641e-05
5.7532942143512e-05
0.000266659255770062
0.000272630226326707
5.66370386447291e-05
5.23299983185789e-05
0.000212325723912687
0.000197571462566022
4.85416078633999e-05
3.41778403930441e-05
4.49604569817435e-05
3.97796935852189e-05
0.000167919495947282
0.000185772849101694
3.07611229045056e-05
2.28658069537072e-05
0.000154341465159412
0.000166511700633431
1.92021426071098e-05
1.96871729133409e-05
0.000119693942869261
0.000108167641233516
2.18872240006849e-05
2.15459567405511e-05
9.82534787151853e-05
8.37481996078901e-05
2.34787843560593e-05
2.27304740219249e-05
7.52082280208432e-05
6.95477380797823e-05
2.25700245486712e-05
2.29135864759716e-05
6.06148949321422e-05
5.42630317580019e-05
2.42040554774771e-05
2.39502098759616e-05
4.96769181748308e-05
4.53454158651288e-05
2.31715350267243e-05
2.09875368777488e-05
4.30577950690208e-05
4.00908496370957e-05
2.29969594712616e-05
2.46142377319531e-05
4.04659084687721e-05
4.02560579753251e-05
2.46006241466492e-05
2.36319659696646e-05
3.98359165957472e-05
4.12001720940696e-05
2.263855535793e-05
2.3314359073287e-05
4.18843894598444e-05
4.53588426430465e-05
2.24396413800663e-05
2.50203204216221e-05
4.98928539449134e-05
5.56037309440025e-05
2.38534718752316e-05
2.2917788501799e-05
6.16492976572831e-05
6.69192515793746e-05
2.3419390588743e-05
2.40469596193731e-05
7.67464443034668e-05
8.62613107779698e-05
2.3489500641073e-05
2.40643781744941e-05
9.40176908664747e-05
0.000120281353601423
2.33666452902339e-05
2.21066060665219e-05
0.000118271767067044
0.000116911476488289
2.17186881986119e-05
2.24817108531419e-05
0.000149493627011147
0.000142396206496648
2.85501216598812e-05
3.62781769709351e-05
0.000141468879216443
0.000153516620575817
5.13411709484552e-05
4.91170225843041e-05
0.000174002900796821
0.000182837677940345
6.40298071802717e-05
5.32714811748595e-05
0.000223447034383662
0.000251120637403158
6.21322015738494e-05
8.32565766560819e-05
0.000363148341526804
0.000466092250886235
9.54383371849795e-05
9.10636967686184e-05
6.1437636617551e-05
9.86370891678171e-05
0.000614129426997799
0.000753456547902755
9.41115824329525e-05
8.92526014196137e-05
0.000689287677345619
0.000666925379701218
8.33429384543564e-05
8.07532121200022e-05
0.000590282361224875
0.000677770738562088
9.22883704533464e-05
8.0901787367954e-05
0.000732227630613163
0.000958703791558089
8.141188546099e-05
7.12000716704899e-05
0.000640899877327957
0.000650402447365724
6.5801993791522e-05
8.70929387507954e-05
0.000560502576751674
0.00078561876693633
8.61365958919641e-05
0.000110709583237726
0.00120779897099972
0.00109556635746892
0.000116999772924042
0.000139758036988634
0.000968042863764312
0.000852392182664903
0.000143589510989647
0.000119832423238444
0.000573469464705105
0.000532804003790661
0.000118060843276522
0.000108050476576193
0.000614285808227703
0.000430135040382657
0.000394788835619949
0.00043134806828342
0.000548541806235066
0.000107501497201316
0.000137645991348221
0.000817511990249969
0.000874136982919702
0.000117587627241139
0.000103918396917381
0.000862782013171765
0.000604731632415793
8.49210546019731e-05
7.76111109452507e-05
0.000430917929037427
0.000449161613870807
6.85337366283697e-05
6.11421600310498e-05
0.000429263692718093
0.000477223532435417
6.03360682978601e-05
6.91063476998599e-05
0.000494259665833281
0.000382149458859903
7.59874853584411e-05
7.49056821645499e-05
0.000342684384828558
0.000285184620622423
6.78713624105847e-05
6.82344075373179e-05
0.000317560376722191
0.000225808343201007
5.86766192195066e-05
5.42299306877055e-05
4.35026053395224e-05
6.04994307865307e-05
0.000221500839794212
0.000171903029973896
5.49238339466178e-05
4.7909926474549e-05
0.000185933651577943
0.000182021651285575
4.85780192934552e-05
3.63378545299447e-05
0.000100512542495079
0.000113118316795394
4.83246980724024e-05
4.90720419299038e-05
0.000106505866986243
9.58592060288818e-05
5.13001007226647e-05
4.52679141812913e-05
8.06875050210132e-05
7.84703401727127e-05
4.09124031477069e-05
3.8198623349072e-05
8.16088587127526e-05
7.84094274216573e-05
3.8487925949706e-05
3.71565295663827e-05
6.93808210299455e-05
5.43836401909515e-05
3.54521956601839e-05
3.52814587578974e-05
4.48758637191794e-05
3.83374750177991e-05
3.32339146928179e-05
3.15176575827946e-05
3.47758752554331e-05
3.26851075082417e-05
2.94974079768341e-05
2.89296247225393e-05
3.1552718262658e-05
3.05422729356721e-05
2.74469448162697e-05
2.7487933771243e-05
3.01596786250101e-05
2.96900165719214e-05
2.63112040782426e-05
2.6618782352298e-05
2.97366205682879e-05
2.93156983895035e-05
2.65077178769394e-05
2.63146860460387e-05
2.88735128560125e-05
2.86945563495441e-05
2.73151904670205e-05
2.75536818752809e-05
2.95147015005569e-05
2.94824217984027e-05
2.72888635634961e-05
2.70556895535499e-05
2.87919866677021e-05
2.88386923370369e-05
2.69792100487478e-05
2.7029478067505e-05
2.923795481353e-05
2.94870597646799e-05
2.62746345667764e-05
2.68693788567957e-05
2.89496493909559e-05
2.93673432578917e-05
2.74164800289111e-05
2.72244207192824e-05
2.97668717786418e-05
3.05414209009259e-05
2.82411601859173e-05
2.81148340627542e-05
3.09008457804534e-05
3.18745627906621e-05
2.96800987994447e-05
3.03855614800539e-05
3.30962144430287e-05
3.53524112257554e-05
3.24343941749535e-05
3.3764924796016e-05
3.89858733812904e-05
4.55756398403475e-05
3.61246010764026e-05
3.6772272613297e-05
5.54625377424364e-05
7.14886241075543e-05
3.8973326529107e-05
4.04455255464973e-05
8.10605951972287e-05
8.67848552810996e-05
4.01014126478959e-05
4.31744519418626e-05
7.99871525166851e-05
8.50694512697979e-05
4.61240014426321e-05
5.26272343667843e-05
0.000107414100268131
0.000117759478766667
5.33594311295722e-05
4.23197098291062e-05
9.58065274660278e-05
9.38805402105232e-05
3.27326206737898e-05
2.94518501346353e-05
0.000103259771110441
0.000101560659127839
2.54154927866439e-05
2.66672069746266e-05
0.000108734543570667
0.000112903853511047
3.1478044974409e-05
3.92702635241332e-05
0.000108952437011354
0.000101348241620862
3.73842715627573e-05
3.26198177340243e-05
8.16312169186584e-05
8.08506780920828e-05
3.75651973507258e-05
3.16935801707509e-05
8.30712339557002e-05
8.09644271852989e-05
3.20877564275743e-05
3.11996150502054e-05
6.93785276522934e-05
5.48248934272264e-05
2.92723933389593e-05
2.8958563595015e-05
4.39564613524516e-05
3.70716508527344e-05
2.67152106880654e-05
2.60783299115365e-05
3.32206206177833e-05
3.06529271243142e-05
2.42432623568547e-05
2.40814221975005e-05
2.9265698504073e-05
2.81786982427929e-05
2.25432175220399e-05
2.29182557502502e-05
2.77548912065452e-05
2.7093084572444e-05
2.20006130299802e-05
2.23563898548547e-05
2.67668456283259e-05
2.63093656619022e-05
2.19259510557207e-05
2.13133505855398e-05
2.67281741527811e-05
2.65027748579178e-05
2.18971798911274e-05
2.2042961581948e-05
2.60662251463006e-05
2.60298023013103e-05
2.20897469164583e-05
2.20082690831881e-05
2.66377959675516e-05
2.66994464997316e-05
2.22128470004087e-05
2.22748377683332e-05
2.60892728214125e-05
2.62494392336639e-05
2.14889914852357e-05
2.15783085499564e-05
2.65690666119984e-05
2.68835957643984e-05
2.16139364845543e-05
2.13366364028883e-05
2.69311587917179e-05
2.74015221831588e-05
2.24614390530768e-05
2.21017846645112e-05
2.78233541756485e-05
2.88411603678054e-05
2.34858639315001e-05
2.35963130671007e-05
3.01106641000118e-05
3.24858571961697e-05
2.54902732892043e-05
2.63695287434174e-05
3.62592561596286e-05
4.28394127250139e-05
2.82902021886264e-05
2.82454960716257e-05
5.38191416791995e-05
6.69424388110286e-05
2.98738468546465e-05
3.07923532528277e-05
7.78490040067826e-05
7.88095760825496e-05
3.03016262866923e-05
3.59577971596025e-05
7.99288204204565e-05
7.82611316852808e-05
3.24495706041852e-05
3.06032315872956e-05
8.11737753607242e-05
8.03845198925866e-05
2.6372083449533e-05
2.71257622167112e-05
6.95704869466764e-05
7.02483774177738e-05
2.65890261864877e-05
2.50222491765428e-05
5.32656691893663e-05
4.67872817308211e-05
2.53047425045309e-05
2.34873955299288e-05
3.58770425105039e-05
3.3960321004433e-05
2.32738616054782e-05
2.1287860212996e-05
2.99315629009187e-05
2.92311154560228e-05
2.16658607191043e-05
2.01232079337403e-05
2.76417727889599e-05
2.72331722566587e-05
2.08659946028922e-05
1.95544104120651e-05
2.64545357635601e-05
2.66724822227314e-05
1.99471473938814e-05
1.99429718638301e-05
2.62081457809017e-05
2.58033799312588e-05
1.98616050669978e-05
2.05704844762425e-05
2.54587001233476e-05
2.63968984858953e-05
2.04148730350135e-05
2.02541496711249e-05
2.64113496909983e-05
2.53936522886419e-05
2.05170646133612e-05
2.04399885333116e-05
2.54665570083381e-05
2.60666218591124e-05
2.02282950722421e-05
1.96659967750243e-05
2.61607805074383e-05
2.57562435634894e-05
2.02403879323068e-05
2.07209069652654e-05
2.65057634722803e-05