/*--------------------------------*- C++ -*----------------------------------*\
| =========                 |                                                 |
| \\      /  F ield         | OpenFOAM: The Open Source CFD Toolbox           |
|  \\    /   O peration     | Version:  2312                                  |
|   \\  /    A nd           | Website:  www.openfoam.com                      |
|    \\/     M anipulation  |                                                 |
\*---------------------------------------------------------------------------*/
FoamFile
{
    version     2.0;
    format      ascii;
    arch        "LSB;label=32;scalar=64";
    class       volScalarField;
    location    "500";
    object      omega;
}
// * * * * * * * * * * * * * * * * * * * * * * * * * * * * * * * * * * * * * //

dimensions      [0 0 -1 0 0 0 0];

internalField   nonuniform List<scalar> 
162506
(
1.03451092156735
1.07661730757746
11.7856352474181
12.4495956726326
16.6335715799507
14.2585705545091
1.59027649771514
1.21832468338345
12.9040131827677
13.6380660446223
14.1861245386102
1.10881848372491
1.11131670954287
1.01921598421499
1.00298051287356
1.00607080329348
13.0955832808149
12.3548789526685
1.02202739755744
1.46606822838431
1.6657247184829
13.3401689856807
12.77292964082
16.5121417958763
15.9606933567891
14.2447932328057
14.39640027599
1.00632408289261
11.8143757027942
12.5091827172227
1.00241070399929
1.00026652720951
1.0019976190843
1.00002296516942
0.999894498533242
1.00379880394737
12.2940992934592
11.6840029833604
1.00902093500975
1.61901946977511
11.6729973655394
11.6196994507969
1.47101958226868
1.67965438747336
12.4313226106127
12.0560068624085
1.13995096876524
1.65960333869102
14.5181258957829
17.1148230337913
12.4965716268742
12.7377042507322
17.8384624688162
14.9943035853764
1.81333101391763
1.52612045289338
13.649003693735
13.1535646256053
1.44843662313892
2.4122273531997
13.8170725879474
12.6470115937659
1.60133133827462
1.03328975627785
1.00676588028907
13.9019360335383
13.0361244915732
11.6869158913249
12.0024580916389
1.00216335572791
1.00816351833771
1.00253178633821
1.00060281786468
1.00199232993493
1.00655123755322
1.00760872658115
1.12008367721116
1.31298965710834
1.84972089344436
11.988452160756
11.9532605419805
1.53240253820317
1.00559819774239
1.00179024910255
11.8114412150651
11.6054415180064
13.1762210123234
13.9108967748744
1.0038841162211
1.01000402458583
1.00011760505211
1.00011098671651
0.999955611717423
1.00000176590198
1.00047024170679
1.00002773728137
0.999912165026935
0.999839434254045
0.999860163469634
0.999923063930928
0.999912979617232
1.00004728779447
1.00906693819678
11.6805824399356
12.2896222734492
1.00372040213801
1.00227577875831
12.4965942451275
11.8041478402204
1.0062001085429
1.46888032029444
11.6100199069889
11.6697583840931
1.61850669550566
1.88056739545127
12.7244947772227
12.7292529579161
1.88180619269762
2.02042662904137
13.4199646902936
13.0096083786422
1.80742573953598
1.2173499817047
12.3969397643093
13.5338488816883
2.28593123725659
3.11166677807852
16.2309187354074
18.9490453616014
13.5103147981947
15.8230988138467
21.7773498269628
19.4480104312835
5.72826389574543
3.6046294737229
16.8257538606407
14.6522868102141
2.33573758863416
2.66061734846175
15.5961491657591
14.9065302179304
2.4303390403035
2.66618953756758
14.6605850597536
13.5245934624695
2.52094566467688
1.8366168667884
13.2115021011121
15.2974367255615
3.19406536731197
2.07702986392639
13.2957414696272
13.6020688332233
1.88367079365825
1.01321972736232
1.00525629826006
14.966942390593
13.9111837043464
12.8154070823237
13.6253564133819
1.00477210074324
1.01060972634679
0.999925097403718
0.999940168896535
0.999911631035892
0.999769538070305
0.999802914972751
0.999922001680076
0.999975830159479
0.999986095764045
1.000504590169
1.00007355775246
1.00035582661328
1.00213485269215
1.01995763765772
1.00330875316723
1.00433177746505
13.0739494104461
12.3333041408815
1.01948503712296
1.0703628591843
11.7628796249585
12.0304692593699
1.1331247047906
1.67636280053575
12.4187725138902
12.994842934013
1.80499717165453
2.01897145081224
13.4132756629478
14.6137032333129
2.73500577869145
2.7478786702279
14.6352651456938
14.1965473862481
2.60861194857978
4.3802819295662
17.4532116978078
16.5670943862155
4.19649063345793
4.8690049117568
19.826262067983
20.3775771112844
7.56518406430903
8.23106986604224
22.4226143889971
24.5387404302341
7.94557450048206
5.94792929898569
22.6293800632315
24.4155539246415
6.83569460167571
8.93988833826644
32.1975380534564
38.3473973631862
11.0841564197117
12.3824151097693
34.4617617774928
37.3122684269268
54.1382447690455
32.0019135460531
13.9700054532024
12.6390922237043
30.0772141517656
28.5537706303713
12.2450268466938
11.8797591951836
29.9721910973543
40.5647281453845
29.1484308576715
27.4414717189042
9.20573845859078
23.9758029247813
32.5244908477389
28.6462982882899
19.6722319837574
7.8188831933133
24.4908220254289
20.6068866037727
6.08288409757338
4.32474684837641
18.8775475795536
16.6885336788272
3.19994003759952
2.95987254956873
16.078749777636
15.2883840339395
2.75583604513021
2.07572597248601
14.8633729726357
14.1534856142902
1.9835409215077
3.52582472811584
17.1323349839123
17.1379419257139
3.48582016966223
3.09092222380492
15.3369717549779
13.2263777212031
1.69013610770611
1.32003371406083
12.4084188579462
12.4014252774722
1.32872276663708
1.01034391857449
12.80099945248
13.608698790737
1.0048212975237
0.999955107832633
1.00005120952487
1.0010102246113
1.00003221441013
1.00459139366196
1.01696278917094
13.8699302638829
14.9182942113346
13.8559396055184
1.00534190374474
1.01138107234871
13.1299495739668
13.2725958595089
2.0985243365071
1.54314367735589
11.9440083171759
11.9906309755862
1.8563500496446
1.00790304695894
1.00225595098847
11.9725405228608
11.6715594571808
11.5794549767653
11.7742794625406
1.00203027799347
1.00591014217568
13.0125231811357
1.03252484801961
1.00643547102814
13.8643168082795
14.1613283675619
1.10204373905527
1.10379114039717
13.4366361285275
12.7321860029103
1.31369450032121
2.01800032409082
12.5954317033226
16.0140903773906
13.5478547939152
13.2671852025778
13.7992790552775
1.16681065459748
1.15138183796168
13.1131162706204
13.479717792546
15.4106460632388
15.3805359558966
14.462793686689
17.0622302386491
12.4681529751515
2.09642003094764
1.55146515058308
13.1431942454664
13.6570865109146
1.6530371602156
2.26257440436082
12.7038593453507
17.7920595764403
14.9512355121646
16.2934135844894
18.9427540054261
13.6840716559373
3.75511630386309
2.36338370015259
13.518655263142
14.1596714813265
2.59239423977074
4.35625364217718
17.2877593366312
17.8695760994995
4.46160191754074
4.48545908620898
17.9414433650418
25.499862795024
7.22172302442372
9.75630941505697
36.50579263537
44.866408764832
11.2435034784312
10.828570311539
43.1601487219392
52.0920983853757
16.2502304982794
16.1000036326875
46.9555294873273
40.6747391929568
15.5409768807296
13.9858665753117
34.4363059783838
56.5135545263519
41.2217018538981
43.8619822366635
54.5483073618821
36.0527447604889
15.0809798139907
12.939320677599
34.7742944196962
32.4201906056529
12.8037240122748
12.0710130126404
33.9712988215041
32.0832826892011
10.4325622125186
8.95296002625338
26.6987091797462
23.8998582548057
6.92384809951909
6.4792213228318
23.8072887856765
21.7574321718333
5.71745049444868
3.67186673966235
17.6668789730585
16.870575822796
2.62166946026124
2.19037857534638
15.60884742954
19.502274401191
3.86924825813693
3.73978515822546
18.3531751369472
18.3337688027047
3.74554701916024
2.04822929058476
14.8214528825944
14.0847843041322
1.91174327568669
1.91593445764126
14.0793625606792
13.2250048572687
1.69043466549617
3.10442439484088
15.3372080279101
13.583105873283
1.9102175771051
1.25922609210828
1.00128802513279
1.01041956322075
1.01817087296164
1.00081986915212
1.00030756714973
1.00016523328252
1.30022231865477
1.11919299710654
1.35729339328487
3.21760754816407
15.2979867047767
13.2092299244551
1.84653532546571
2.52975806946536
13.5313939426288
13.8231913490069
2.43044925354251
2.47204125706685
14.9296637812674
15.6585092408838
2.76002944470794
2.55227592654002
14.7300938015213
17.1685511567356
4.02700036838859
6.29872559002716
16.4061673047365
21.8708628510752
19.631926429596
25.073326915176
28.8458890018387
20.9198963336747
8.65686960460671
8.15128136427834
21.0107088280556
19.7414891261412
4.89570580224044
5.97748443452985
22.1123511647396
24.7820643471346
8.6271690180031
8.897118946907
23.5316369465611
26.0069991866452
10.0167745954206
29.168667724848
33.5296507652193
43.4679502691977
32.4679068047037
13.5293678470364
32.8248047931075
34.4755530141571
14.806461552116
15.9708277432136
39.0586626193909
39.4440298957098
57.6530827454114
41.1131177573411
17.5162819508494
14.9897412424657
36.2257631918315
38.1869293906674
13.035751613916
11.8958603902638
42.5460054183135
44.1945629812786
11.7008707804161
11.3347391878966
45.0372872778686
45.3480912717764
11.292198390706
17.41858911045
54.1899118475999
54.0371912263721
17.2434466324695
23.3472158142001
71.4081598192041
70.0014224723807
22.3436446091711
21.5122001584975
67.142951947069
62.6354776053556
20.6827019003229
18.4591539522931
57.2294734503076
50.6731792974314
18.5463114694332
20.9524673650589
59.5352180344536
47.013908808634
56.0145637300043
37.8579015497685
15.9119414077996
13.1900688608442
36.4491323638624
40.2652164896998
12.3546467832661
11.2929565621122
38.4665342013752
36.0896325541265
11.1358528735913
8.26597486415357
30.4490950223365
27.8445938808983
7.59327512257605
5.11678182366676
3.31844151623533
1.6769209878668
1.78019217097625
2.29301644083439
4.54849026428498
23.4465300318106
22.542197116973
4.70028888237769
4.4579677320585
24.4092331923006
26.6804909042888
4.93962947799994
4.90134842129664
26.0806140056137
28.2895337767728
7.48804250589648
7.23732514399817
29.0031359415647
30.3148641590329
7.14986302399691
8.75557203269174
33.1839028126714
30.6037905229024
9.06137928088923
7.05122584599903
27.3167329773935
4.74687229751632
9.43931945305639
30.5870111883675
38.176469073382
11.7934805706642
11.1791801754602
37.0491697618727
31.254697079751
7.74525546851188
4.84613964732355
25.4125192674002
25.619301207788
4.79479444792664
4.82570454256251
24.6200227492046
22.5845724709731
4.69223741520048
3.97871815416596
20.6809683177285
20.6445311756801
4.00329651982387
3.88739059555985
19.4683356935093
15.5074352883624
2.12247298833584
2.1294937694436
15.4929351956971
14.8127186990309
2.05691807933921
3.76000956450715
18.3120024725781
17.1300885656977
3.50282154989626
3.53832601640015
17.128301163973
14.143099189922
1.99325079483258
2.67843976667005
14.6655890369117
15.2818584184087
2.75805408091212
2.94219281472619
16.0348022030211
16.9463028802872
3.51367534717311
4.74523671914953
19.4353572272331
21.5864423493988
6.78874699755555
10.0434492273637
28.8417204195182
31.7879455509575
13.5130402833476
15.0202427241783
40.8201192028786
43.2491430710105
16.7970202647013
16.4155843756509
42.3817521802326
47.1530964505106
20.7871934386517
20.836523915996
49.8184561502559
47.5357397627531
18.041100916959
19.6511544861837
52.3307598915053
61.8650166148791
85.4116008324627
76.2920764234205
27.9272099744176
30.6902367912787
78.2891801842656
71.3667177701922
28.6162343523232
23.7693185688928
68.0226570206934
85.5396824597592
55.5440575183658
49.1745725302911
73.4746100974079
53.4716856939776
23.5454952350271
21.6418989558802
48.6657911529228
49.2829857357203
19.1596455947096
17.6693331178194
52.2891042479249
53.3299965445918
17.763767713464
17.5219075181709
53.8435807635683
70.446074279126
24.2145596222359
24.3420684343231
70.8188810201243
71.128358582111
23.699971892919
23.8413177928511
71.1740155415552
96.3633371023094
34.5752495075051
33.8754234258014
97.0490704221992
95.765760760176
32.5629596216949
30.6818675359861
90.7241085924607
79.0965748482399
26.2228204716291
20.5291645117622
66.0007101731069
73.8018441543338
22.9464395222204
23.3496763869792
80.7372348299375
83.7879622708221
24.3310102671054
22.0957592505002
65.3073159830543
49.3649477690091
58.1645218502122
39.275785659062
16.6821953637228
13.4827663426761
37.8998080489304
42.2953057434072
12.6099339408355
11.4106870840736
40.331094666391
34.325386396804
9.19920767949007
8.64938699188468
32.8794278467451
5.82408774545279
4.05699307766643
3.8429275920397
4.60344945315218
2.65944750070201
2.29892279127073
2.06310881675427
2.22857370912547
1.45127597571433
1.27250121772889
2.34864704808531
17.5292735676375
16.8676862212596
2.23264700502945
2.16980023878229
16.1810446420804
16.1472512426362
2.15327262969696
3.97511394425116
20.4910381957485
19.4159717783245
3.90508944327791
3.82416735425247
19.4295249809323
15.5312519602295
2.18298578771073
2.89735563057281
17.1087323503009
18.0302712634748
4.05208680187014
6.48922645820048
23.3511357655098
25.7298050901091
7.96636841066172
7.66118886133459
25.6651360355689
30.3759858783704
8.71339894902532
11.6667539859479
35.3627558287384
40.2741114724985
11.9819762147618
16.3072762487698
48.3622265232011
56.2099633572274
18.95308594899
29.3448798753608
83.4763118669772
96.8265199410501
67.1667938198244
65.9368171864269
95.6112297377691
90.460509049902
30.6103549686782
36.3421410276454
105.460329200216
106.087362569678
42.1745596209863
41.224951665672
107.556980053593
131.396366429386
46.1223295401675
53.1647738687213
147.585339151231
142.414003859834
50.8722538391109
51.9934118752935
141.386260417052
143.798647388236
52.5082753891202
52.3872520806124
143.927622450584
145.019186785369
52.3225670578432
52.5582038050445
145.251200090983
145.557290514117
52.7520460490189
52.0689175101206
146.10690705365
146.240348710764
51.530805459562
50.2680805773461
148.138626543056
151.470823411954
50.3381769132759
41.4308637093234
131.418243634442
96.5431997372036
30.6186601839975
32.1072867716451
108.314446735608
113.734839179545
33.8226092288817
36.1192620819957
120.514692630913
86.6165687389755
24.7254815433163
25.9893231385692
90.2497059058096
69.9031191941656
23.1987483273246
17.3807013439301
40.7936491545993
61.485082872768
51.7833546640887
54.4764868552445
65.6009294469462
42.8253423654091
17.907328652354
14.2919057724999
41.4653258898376
39.41494054917
13.7634576681165
12.9702103346329
44.3950129021383
42.2869920969776
11.5918462027331
9.43729918887951
36.3334010057865
36.5979383712135
10.6979408869694
10.3443793320127
33.8868317285781
5.7211291409356
6.36107554097511
4.98207647248181
2.31418099681563
2.48122664756034
2.20199640936497
4.32152114228539
24.3354684236659
23.2235339679509
4.20933854673119
4.13145272301532
21.953247308895
1.91443045721425
1.16201138991154
1.14768951843144
2.21396525132564
16.7715846867078
21.570338382069
4.02313268903324
4.03189616501395
21.7662051189198
19.7543273029611
3.56329223888337
4.47936745802021
23.1043106511946
28.0426803085137
6.95370224338148
8.82395008451031
33.1647006862385
33.8773216166294
10.5075215264031
9.04018236096462
31.3621183575859
33.1522510979394
9.31356013792853
9.79475447795769
35.5299314317648
43.0265798891704
12.5335954994216
17.3010688559553
52.3137720278152
55.2908317466887
19.3629234037902
19.5955580954448
57.3788658400196
67.0142949328391
97.1076420251932
95.2684017956467
31.682487706871
37.909559904229
113.881930030157
127.133935060291
48.1593093615412
53.8991847466865
146.720760213555
192.672323585393
59.6803565246014
65.8970800876773
258.226564470779
295.10519904483
66.8666338606049
70.6938470699915
283.72400463361
277.246282076024
68.4215087413423
70.5008719509713
277.808352013584
276.999692391736
70.9512933279289
73.6772022402477
280.328362661902
285.000717285836
72.8817700798245
72.5341119349636
286.329432706214
286.238709968867
70.9632732841676
73.7487939206715
287.309328127434
289.913909056371
72.8993192872574
71.7450304023055
290.095342540593
290.145096804835
72.6931563459791
73.3744725889777
289.760869435313
289.258235425603
74.7025620924904
72.0878663585437
288.054484583201
288.424755683653
72.8199264942983
72.4480045187747
286.617440827305
284.161605956702
73.0670057505972
70.4241651109885
281.261028444067
282.266694926809
69.6453581752334
67.0784337880381
281.87533761028
287.213100356785
67.8192206008037
63.7564430520712
298.844961332202
259.131084898123
62.4478896254496
61.9908851117646
247.736073268593
238.772819199535
66.301006874116
64.9392736647143
232.991874075747
230.226079851684
67.340466458958
67.022308471374
227.439962080589
227.758474507199
69.7163419294814
68.7017584504351
228.150387383081
228.375748811818
69.6095359232681
68.4300520609821
227.496365334599
227.75046453138
70.3069377736832
69.3255280991182
227.563018810018
227.720230470695
68.8996152079576
68.2563949534805
227.469412030003
227.230843022111
68.7935186680438
69.2226716368456
225.633081003383
225.171175277036
67.637489515488
69.2606661818726
225.511973389382
224.946725896228
69.0306406696771
69.8464414939563
221.690584005122
220.503153515276
67.171951312789
67.7268963806433
222.221390975014
224.422186351422
65.7335264291939
68.8793648587712
230.974462778509
242.157666569685
65.1588736416479
66.3956419145277
36.5823067687172
23.9434498892298
13.2999948289426
10.5596830805868
7.12163216108001
6.01147935214577
3.57312702046205
2.80091365978034
2.46873192973775
1.85850906747796
1.80222711419564
4.13582364148048
22.6569342757787
23.384301967314
4.32656750016919
4.54516130476013
24.9492735866483
25.1187733736773
5.06170277116986
6.76677290902294
32.4937789995527
30.9133084948915
6.54138435103119
9.70630621990215
38.6436797463647
39.9233374308177
11.5085295078908
9.66677494822161
34.4529762247881
36.6064501508044
10.0070557548146
10.3537463667268
37.3055089418362
45.293104270995
13.4493767277557
19.0727645551841
57.7637874605416
62.868105877933
21.2167745605961
34.988323109376
75.538958509728
105.862979666734
95.3241301193763
123.215166330142
39.7031967773632
50.1074536808899
144.619470155946
191.961090093247
56.9214647548746
72.4749873785369
290.985852515374
333.519117248571
73.4027114979728
73.9732557041008
314.920436021574
298.792988881079
71.3154973915082
77.1475420118666
292.09439410001
288.678649287781
77.9943615354043
82.251585871855
294.711024746159
299.850963839331
87.0344384116086
92.3512785213496
305.754772754124
309.714968890272
95.2556539655819
98.8669767133609
310.533540670834
310.984970561968
101.362261113685
108.651613709407
312.937916828277
316.492219074388
107.337604710411
106.351265942825
316.215173714061
315.775330429638
108.09784244558
106.398531040543
315.347064405638
314.050523524781
106.511323517021
100.030297270497
312.235228746946
311.954561876053
95.2633291419131
90.8913617301394
309.690705232296
305.099673776161
87.7546017339717
83.3977875037889
297.845364468041
290.381526104587
79.0464507137328
74.3483243421608
285.155518870964
294.754165283384
72.7925564396799
67.9406192884887
311.17845238277
256.593195461012
59.2944602691738
57.693967413074
251.849575059232
165.971730053399
44.0685688213566
47.2741124538332
174.484350383491
189.655361602088
50.5088210516952
53.9115787878044
212.505161383066
129.27246584224
38.3985324638709
40.6353963577331
140.962209017909
93.6008577644086
26.2853447383716
27.3449289358352
98.5234198849739
75.2126441807003
24.1035323463398
24.6276116679503
80.7143746451846
59.0922236289527
73.2849761741871
48.9250815352236
21.0673422447553
17.1553046086328
48.0447305981618
51.6551100418613
16.120777721572
13.4825464712324
48.527460689257
44.420632544873
11.8043915027922
9.65195821467676
38.1642321061593
38.5778832048777
10.7737436117909
12.2298586862118
45.7245675576554
43.26798562617
12.2546033348607
11.3731516423961
42.143128209053
33.3178616028373
7.10011329446381
7.11541162255491
34.2657513445817
28.4589488647215
5.77137733665476
6.21855297995006
28.4569525007481
25.6360629690275
4.48398479335018
2.5763856661224
18.8749688038558
18.1427857072963
2.4899421355418
2.50543975628933
17.9956053163978
17.3750866278127
2.3416143155773
1.27910110450734
1.47432438369567
2.00325678051778
4.31557844663812
23.7982899669089
25.3019405164731
4.58851618346722
6.27782815154161
28.1431323474013
28.304950988615
6.16197465304163
6.6453040738361
34.3884090010557
33.4313938201344
6.50611147539589
10.1149158506784
43.677014628099
41.693821862139
9.9451820102176
11.7480654677151
43.086909842322
45.4255527577873
11.8708404064317
10.2937759511531
38.2785838234318
38.9182756929891
10.8273225675619
14.3195474956201
47.6415889494265
62.7653217627413
20.1221894117393
22.1188848858784
71.377088574583
90.4917391998786
125.807584861105
101.559531642467
37.2930065993312
42.8315154021789
144.559763688003
173.313763933984
54.3119985205799
63.1408549474042
237.035202025796
343.559579861305
73.6503260421787
93.4330520253198
452.253105179772
422.278275431524
96.0660152530239
106.372770362896
424.979663352113
504.382146733807
133.564189452647
169.990478418379
641.676542485281
799.945315580395
202.033329886947
215.675986499887
845.636694525561
860.155734916939
225.894241433797
240.953332871052
863.531053787128
867.538933844596
262.645897704568
284.639228226705
865.753048057991
864.231850278175
304.315952720862
318.802689823668
858.334821755876
856.768205522072
331.526263279863
340.361051139278
850.68902611791
851.59385224376
349.454706558247
354.701971956985
848.442280338123
852.597926376497
361.893021535234
369.869506716892
853.029387467873
858.783421711153
377.932572974484
377.010641905254
867.334317847016
870.275029999078
371.64299029828
369.067243062801
866.174189253177
864.384949838024
376.593166288518
380.618071146016
864.026722258311
862.035519388611
373.522885807981
372.239499934648
865.870805662833
862.489201219385
370.575136052473
369.689945325126
864.977497250152
861.504469820368
361.469812919141
352.993866739806
863.137702225941
861.18081741942
343.194730114301
333.047808380902
866.338883598705
867.447114508025
319.128890822637
303.552127206232
874.774261507574
877.262505449013
283.25930101129
262.793072163598
881.635924950684
879.623190415875
242.621828570617
228.557690935813
876.5460741127
860.356469827509
218.068013526031
203.029175234434
810.621016258711
646.2078579404
170.814298659158
136.024142621499
518.138193751647
458.968230111943
111.126678952006
93.6290000840622
459.024188415005
325.559821637322
67.2614133359916
63.2404875912066
298.865383194977
281.406014359669
61.6966526401797
58.971865924171
265.339489430792
335.552836553505
71.237066827306
77.9639894627371
367.146387789948
408.046780666798
84.1144853353974
100.020679464987
400.17497577704
434.957477415905
121.797849905612
160.990573929445
586.866686089437
704.693829843133
194.507942955276
207.39410408663
741.640070919691
756.004468635376
216.620976631471
224.593030484397
762.085666079807
768.224774734289
239.844348704071
255.866405987588
765.919268075551
767.830079563207
273.707739398561
287.934665591437
762.01625142177
764.163831495157
301.265567556243
310.998157809085
759.375624743619
763.056672950887
320.553175959699
328.386038421381
761.588093686015
765.616761587342
336.494753632448
337.425630910624
764.352164125006
767.277178638629
340.014491243813
340.993671728066
764.172851724882
766.156820200257
347.439804356201
343.492259607439
766.725439033966
767.39964126543
337.464624804502
339.791140839289
770.629841825006
768.856859472043
343.525274468712
344.364338058636
760.920090258796
756.452203538113
337.126039080541
329.40493371983
755.467793755184
751.293322414417
322.377272149036
317.461656427969
754.245772891603
751.408300886822
308.286407178829
300.115869395056
756.947397343131
755.253565879802
287.939984786297
274.659841978487
759.600695035283
757.172424269537
257.4338761522
239.490097570156
757.027601685167
749.693158146228
222.73148390059
213.877809684402
743.776194572888
730.353888132268
205.103873493498
193.022779175677
696.180378773914
582.19288800769
160.054925506383
118.545666721636
425.99983990426
482.805447091571
148.21931721216
174.389684254072
546.43399854994
567.472301084899
184.659958602046
192.59699670369
578.376139049188
582.440998635935
199.67984971775
212.094757870422
589.30911980769
589.534909881223
226.085086123719
237.827892265151
594.745481878998
592.004114660802
248.66268872651
258.577779297399
595.874382661338
591.298103221703
265.730999002607
274.079897268732
594.923436279488
592.589797902501
278.641068179132
284.695649114006
595.963883168044
597.347883840428
292.218847314195
298.128150788257
600.082080436533
606.662044584913
297.311963025715
295.431379871454
607.676678691188
605.404891862451
293.380469868544
297.220883953289
605.243414278032
604.609379244357
300.872149612058
296.068308389906
603.222776594286
605.3893239746
295.358530128196
291.916409801994
603.12343533332
603.38634757421
291.166652394719
283.836657623647
599.847220248664
600.91943658547
276.713984768456
268.490045127514
596.658487670933
600.662802844409
259.654147845495
248.810062734894
596.314624249285
600.441654579558
237.299490631909
224.831064601854
595.09734948135
597.183336071978
212.781465379004
201.104841158034
590.633909724866
586.344339649739
195.046009763926
186.853625030094
575.491986000897
553.594869136163
176.233960505038
149.328291804197
487.709742137369
400.206314532136
127.623392835314
99.8223131782667
355.227942935461
353.731177055643
88.3517306482818
79.0573593957095
319.198650948007
311.035151739215
82.9306756632612
90.5057233138489
321.753006743483
334.078553571708
96.6626890085526
141.318056557524
426.460281347144
436.093296909155
152.712350902697
170.533192723702
438.709921698287
439.436609362051
189.618177155049
206.097346468932
439.491783568722
441.594324134836
219.385616404934
224.52969265098
443.55889840651
443.581604468988
228.771063023217
226.411494975518
444.582685679016
445.676029517678
227.213875605184
226.478463620522
439.731164884124
436.521619026084
214.465785746207
203.793442647084
435.758149870909
436.214300098068
189.4698403065
171.814594732996
434.61440318576
429.874012576339
152.708427400567
139.769898481256
420.318808219153
396.068996799719
125.696661568656
97.7272025201373
351.505940718086
332.922413772848
82.6739152459941
94.6822285286591
372.415852683806
375.98244299354
87.7739815408176
84.7639710304097
403.151618474906
315.681755469205
70.6784535094252
60.1047963419267
208.48822410386
298.661188203709
70.7246895052347
79.4176119443785
365.476644399243
341.514073855321
80.2788887640852
76.0865075893933
321.634030687141
310.002726420928
75.6242695943883
83.0520028524414
313.667241346167
319.574236396798
89.0516503472292
95.2920135235007
329.39790832046
335.636654252711
103.44761439502
115.353979528239
338.890891997966
339.844551040221
125.772095097099
134.897553332014
339.194851311562
339.125819686274
141.777063327491
151.387501226698
341.255194666059
344.971300921576
151.347642905722
150.675397271619
344.51703334065
343.93671420615
152.377552653756
149.27901780687
343.535014428608
342.655360893701
146.530849136369
136.720416773476
341.479480391633
342.418142079592
125.766293095331
113.86901499948
342.460768144916
341.195465781546
103.385282904522
99.9644015329345
84.3895424291037
80.5505382646834
75.8707623637811
72.9334786494321
63.0194406778739
59.6763696529347
55.5640706058244
53.4128719123284
44.0024128665512
41.958581305676
38.1428334335188
36.7269510264756
34.0708808201229
32.3841145992901
30.589211474619
29.2888966453839
27.1795857542091
25.4721784309231
23.5549144091759
21.9177222354655
20.1270225776295
18.3418736325796
16.30839397811
14.6948781227891
10.2771916137507
11.5559294339579
9.23592297264481
5.88556358741435
2.86587491806331
2.032029188366
1.42544343048509
1.54017036549656
1.62315466245512
2.63620932936129
18.788663942479
20.7414976896124
3.89645736122575
6.81303029470419
28.9045953092085
37.5526587100611
10.8095827057012
8.29714496148226
36.1595878717926
36.9699467408079
7.00222129330836
6.5708340826171
35.3625886346019
47.4439721949651
10.1394882057394
10.2160006481842
45.647010608895
47.7102956486422
11.9673008089089
11.366820492484
40.9902591790695
42.136963579995
12.2102633625737
15.028908035879
51.2874116674027
67.753584550561
20.8179507889751
22.7173236666157
77.309507450252
100.155713084324
144.757168986307
114.966372219144
39.0312126607561
45.1651006707707
172.7034618505
223.686388346081
58.5377610593568
69.3402954445988
362.199025500418
552.632856862629
84.832278141801
139.80129470985
826.259463473323
775.450902168458
141.752213747114
170.849310998174
836.319321669427
1113.44093913115
216.990566273904
296.225328350504
1601.54154602127
2128.79485465746
401.896899517801
436.96163320646
2238.83631187063
2241.98953418995
437.236112249099
444.594974365805
2197.53646776273
2125.71176242529
461.647599156361
481.782721477253
2079.48333102992
2109.99117974823
472.014797292372
442.92108491323
2158.75123228353
2193.38032280712
416.435556646234
408.800090157354
2218.22478756854
2224.48718928263
405.402375673232
409.320849085739
2229.9304382397
2232.49284073424
408.847095896188
411.356762430968
2225.07619229618
2240.77862163899
417.456677655066
416.666489986217
2246.47173461256
2274.24035543926
416.96808010399
412.787195431045
2265.02017639388
2244.25625673169
412.930182759487
416.695543671906
2246.54558233753
2248.01879726032
413.702656036508
415.216945227936
2258.24570751871
2244.96430984345
414.906954493724
414.931127495517
2255.16527607711
2258.83599601199
413.124244539038
409.011399836503
2254.70368266929
2247.03155772419
410.814565832477
417.404572035345
2221.6965553558
2186.70669765927
443.414187127198
474.30470715752
2142.01394144582
2115.35352642384
485.099118807204
467.849480989588
2165.17873025938
2238.08267318856
456.061652667679
454.486114598464
2282.14787760341
2273.53285928092
455.503195767734
412.461663316248
2150.88412777547
1608.1998236335
298.615413359492
218.187870616594
1147.59137570475
908.793006974335
169.532625675551
144.866757143752
843.347579473304
524.772835679762
83.2313760916348
76.7803865850639
449.08243670615
401.139756512143
74.5910276192422
69.426698233735
353.924590416295
529.3055507528
101.32121222462
114.284593612848
620.630088213534
726.809239061425
125.816600467071
150.184038242839
766.181854002806
943.072097706397
187.028128116005
268.032310520736