/*--------------------------------*- C++ -*----------------------------------*\
| =========                 |                                                 |
| \\      /  F ield         | OpenFOAM: The Open Source CFD Toolbox           |
|  \\    /   O peration     | Version:  2312                                  |
|   \\  /    A nd           | Website:  www.openfoam.com                      |
|    \\/     M anipulation  |                                                 |
\*---------------------------------------------------------------------------*/
FoamFile
{
    version     2.0;
    format      ascii;
    arch        "LSB;label=32;scalar=64";
    class       volScalarField;
    location    "500";
    object      p;
}
// * * * * * * * * * * * * * * * * * * * * * * * * * * * * * * * * * * * * * //

dimensions      [0 2 -2 0 0 0 0];

internalField   nonuniform List<scalar> 
162506
(
83410.8041808058
83411.4487114641
83411.1324192809
83404.881889575
83399.1321056499
83381.8683927848
83401.6607532784
83401.3477200585
83379.9252655977
83456.2778227498
83459.5828910511
83430.9777061804
83423.4950725875
83417.4955596161
83418.3495508223
83419.1622320812
83419.3460091645
83416.4442653554
83418.0604139898
83420.9210483705
83429.1990636905
83427.5251414906
83416.0037522643
83430.8991283904
83443.8291545298
83457.9037883533
83462.017145321
83414.6604041747
83414.5385593886
83415.740140932
83415.4593476604
83414.5496126853
83414.212916911
83413.5034047721
83413.5810378317
83414.3261054983
83414.5301881462
83414.2937404751
83414.1473289327
83413.2194720787
83413.2390444665
83412.0734267946
83412.0181322466
83410.7482734229
83411.654469561
83410.5947298307
83409.1767872269
83407.0283520989
83395.3354988784
83403.0612595445
83408.9841642434
83412.6925552853
83409.940303876
83407.8177542481
83412.2174232073
83409.833453684
83407.1866642361
83395.8021280551
83405.0096142325
83407.4787021094
83407.1621298158
83398.557042027
83404.9912409952
83414.0764951926
83420.8968789575
83433.6076489459
83414.4228484633
83408.7882551309
83421.7392710394
83414.0125490054
83411.1568939903
83412.8401200965
83414.1109954052
83416.7490167641
83414.6566824232
83409.2587255504
83407.4739055098
83409.4231921322
83409.1414055195
83409.1154558266
83407.3592411067
83409.4000699353
83409.3949628785
83411.1765473081
83415.8760625472
83405.7457818329
83405.6688333162
83412.7845430306
83409.7507862317
83408.0174991783
83409.3167330222
83409.8107989445
83410.8860013783
83410.5129450438
83412.2219333519
83412.6352780803
83412.2419356283
83412.1228238532
83412.4653582678
83412.5699583367
83413.9053753232
83413.846570592
83414.4743414346
83414.6082976064
83414.8214592553
83414.6165088
83416.3050965038
83416.5651330162
83415.4401143912
83415.5422282859
83413.121941623
83413.1460787084
83413.6206368484
83413.5867503542
83413.4777829518
83413.9747171893
83413.474022764
83412.9636119601
83414.6950820225
83415.1588517089
83413.1189329733
83412.6106933727
83410.8760170642
83411.9254655493
83412.6052434285
83411.912225603
83411.8391719219
83409.6024129328
83410.3951447972
83412.2670471433
83411.2724111878
83409.725170148
83413.8617425948
83409.8810295633
83405.160011691
83405.0240140749
83406.4674758027
83408.7384408348
83407.5391847521
83406.4223730314
83409.6888968851
83409.5042122528
83408.7913301697
83407.9747197733
83408.2044023476
83409.0029439301
83409.2774683183
83409.1073051806
83409.8936823445
83409.8794229194
83409.250061871
83408.1672824183
83409.2870470595
83409.3903048208
83406.7219236735
83408.1296507608
83409.1458524917
83402.8785870316
83405.2549532135
83408.931347653
83408.2451265095
83407.7225349426
83409.4232285348
83409.4962801067
83410.8183124513
83410.6601764208
83410.9495406154
83411.1037473843
83411.8032885039
83411.4488643183
83413.2512727826
83413.6150573931
83415.4535988352
83415.1720476523
83418.8619564108
83419.7025640397
83420.4287003478
83420.6302397167
83417.7842882419
83419.159004164
83412.7637329788
83412.4555530078
83412.6858067046
83411.2970366879
83412.3329667718
83413.1907423238
83415.2140120535
83414.6466365039
83415.4025631016
83415.8764367516
83419.4415137439
83419.729232891
83418.5640904319
83418.4181019663
83415.9165702599
83415.7251671599
83420.5190858786
83420.5355944767
83413.978721868
83413.3046989136
83411.5026267406
83412.8806970474
83409.5472733825
83407.8903230542
83409.4848032757
83412.0451991665
83414.6587370049
83413.6180139271
83416.869855346
83418.7764243797
83428.4745467533
83427.8958230184
83428.1134830884
83428.7057990987
83432.7651425916
83432.5870926591
83418.330624886
83419.5146487673
83417.0803063806
83416.9053040287
83419.2845891572
83415.983042423
83416.3591242767
83430.8049339919
83400.9632841907
83411.8206194798
83411.2550465607
83413.3795944881
83403.4832532815
83396.7194639672
83379.8016621374
83404.0447340816
83407.6381822013
83395.9594062942
83400.5347455409
83407.074378256
83402.0020522658
83387.4162073143
83375.1222654613
83395.2166836348
83398.9184451485
83398.2738027179
83403.4269191763
83404.631674171
83403.2644354867
83401.7110774456
83405.6719103017
83406.6960050297
83406.3076695297
83406.0517103925
83408.885176778
83408.5142050451
83408.6239640102
83408.9269819174
83409.3510844141
83408.7594887395
83410.3673729942
83411.3704043097
83410.7708992391
83410.2558154986
83409.5835661692
83409.1226110347
83409.8341172729
83409.9853868847
83407.7447080241
83404.7261128328
83408.7299752261
83408.2747596526
83409.6773230814
83409.5892287936
83409.2774904888
83409.6805327032
83408.477765341
83407.0985394982
83402.7348922487
83409.3757446982
83414.4465430756
83410.8273929979
83409.1786070292
83407.2792990203
83409.7182095248
83410.538456042
83410.6414317332
83408.4038655808
83410.2607704624
83410.6126763654
83412.8693691303
83415.7499494778
83424.340056742
83411.3128305475
83407.5182242298
83417.8261723274
83412.6470209032
83410.7662480677
83416.3508132433
83415.8148489996
83422.7590660031
83436.1297397213
83462.146722507
83432.9645814156
83425.3015181128
83457.6498891107
83381.1623379243
83403.4582305972
83403.9341890908
83407.3474378106
83402.3406772251
83384.0737639379
83459.0708009352
83458.2104243282
83431.1144268803
83422.3083588727
83417.8252884811
83429.02902368
83444.3351369359
83432.2627297088
83399.0905004244
83405.8661674854
83411.2875823886
83409.4658516
83407.4259116587
83398.6382100793
83410.5890073162
83413.0827196528
83415.0521440705
83415.3082053412
83412.5527239943
83411.2642864236
83414.6170824059
83414.8244915013
83416.605190756
83416.3271364765
83416.1799436595
83416.6336661489
83418.6448260485
83418.8091615621
83426.6745137109
83426.2895353982
83428.9525868855
83429.3142133621
83426.7416850761
83426.3956694486
83441.3156349169
83441.676452311
83459.52130946
83459.4775397774
83477.2926669593
83476.9000422608
83452.3839185001
83452.9757234813
83462.8005954353
83462.1864035326
83435.2826064552
83437.1303682915
83419.5809965401
83418.7441936887
83414.7669274081
83426.3741545328
83418.3989038286
83414.0577672885
83394.1708158463
83395.6323129284
83398.3359702393
83394.2897176902
83395.465284907
83407.539736631
83440.5760008552
83419.4336044201
83423.8645522792
83449.3107340197
83436.8693864698
83419.4472278029
83402.2425311657
83390.4661233337
83434.8227892582
83407.3725355241
83394.6667772066
83395.187257608
83382.7950333233
83387.1416464305
83396.0010582114
83393.0816016179
83393.2821395147
83395.4613572007
83402.4776751045
83401.4022615514
83400.798329186
83401.1495197822
83405.6316374837
83405.5856364449
83405.5392430794
83405.4928122453
83405.8792695043
83405.5663888157
83408.9121246508
83408.7551943077
83409.0470527366
83409.1122495004
83411.7580993294
83410.7538161095
83411.3890457796
83412.6714985884
83410.9825163335
83410.4058330234
83410.1127785675
83409.9931271241
83410.2412508348
83410.6285095564
83410.4763181232
83410.071164883
83410.5725026923
83410.6164284524
83410.5872146368
83410.7078283571
83411.0719403976
83410.8554637696
83410.6537827505
83410.8651039796
83411.0639104769
83409.9282202613
83409.3853208794
83409.711135925
83412.7382097943
83413.1493823185
83411.3926925635
83412.2064393849
83413.5565017935
83411.2338781123
83412.2418569069
83412.8236413766
83416.9385001754
83417.94091316
83416.4125768646
83420.4092733476
83398.9990596701
83410.7223070177
83417.2626162441
83413.1642260153
83419.3953266263
83421.2239558823
83423.9383420165
83421.9869179659
83429.0408599379
83430.5105992066
83429.3600064712
83429.0569656763
83423.3425316763
83425.4830687154
83422.0729963596
83420.2038890321
83394.0762154953
83409.6468410812
83421.1515189801
83433.7462134088
83431.6600368504
83411.9342101215
83417.858542388
83436.1719301166
83443.6549469468
83449.5887121335
83435.1537428002
83438.1711869446
83444.59951177
83441.1899978697
83445.1620554299
83446.7396474926
83464.2625589025
83463.6626763691
83485.4811825122
83485.9408679736
83503.9118985133
83503.5978831111
83508.1019541479
83508.4293812179
83497.9692833746
83497.5501597352
83537.3461054318
83535.2981388632
83500.5672382196
83501.1349827962
83505.8842299811
83506.6141117414
83480.6469046156
83479.3495536385
83451.9653787777
83453.4576730501
83438.0584707869
83436.8804985184
83418.329181139
83417.8874488354
83403.830229721
83404.0877644885
83373.1530538231
83372.9622817074
83364.494562177
83365.7342652194
83364.7200091912
83363.8790505731
83363.0282093232
83366.114072516
83364.3142837644
83362.2596180021
83359.378172156
83357.7752588843
83389.1921719611
83388.2142358036
83380.3490159144
83375.723958546
83405.7887723156
83403.5403519141
83406.0964644045
83397.5327295527
83404.666864047
83387.917925779
83366.539855273
83370.1160333032
83354.5282013152
83392.179786931
83366.1382200618
83356.3261209649
83425.8693932284
83420.8197546798
83365.4027176705
83370.8061226748
83393.7969736064
83393.5254947993
83369.6985837935
83362.4888213865
83407.8287468111
83380.8150721167
83351.4244433525
83359.5175906552
83383.1548905247
83374.6552418056
83367.4546072036
83368.7146362524
83352.697434975
83367.7337390028
83360.9963949792
83354.4651229769
83353.3024969313
83340.4440889395
83338.739667191
83349.3319573989
83323.8372377023
83330.6611387189
83313.1232924417
83292.9623801525
83318.4221154334
83319.9935006767
83358.4915599129
83358.4284005086
83383.5080101798
83381.7656248627
83393.7801511037
83393.3672909905
83392.7377292248
83393.2697549547
83400.883388931
83400.5749302967
83400.833577359
83401.5105494369
83402.2215834434
83401.4617360084
83405.9709488231
83406.3549830706
83406.8821014959
83406.864720685
83409.9902157401
83409.5992523491
83410.1358419425
83410.3191147748
83411.3035489161
83410.7942962354
83411.7235835868
83411.0604517478
83409.9555079972
83410.9017852477
83409.1847746833
83408.1398700415
83410.6616646697
83411.4286283078
83408.3862829618
83407.7366192419
83385.3133279714
83407.0206186891
83422.0690697012
83407.0001664206
83400.992828447
83426.9553402949
83454.0235310623
83476.3993171467
83477.7803127753
83455.4925248224
83452.4517148835
83475.2850872506
83467.9617723024
83448.4728573526
83447.5627173418
83463.7458271353
83461.6983345074
83444.3430552454
83430.4737915837
83442.0326762668
83432.4570600999
83432.9564320185
83430.519695164
83430.5913261408
83433.3967157902
83431.61333745
83440.4449146227
83441.2824172004
83444.0494063056
83441.8281927495
83449.4259714829
83459.0663983575
83458.1080779802
83454.6486939831
83450.9795062606
83449.8114441575
83454.7349828617
83456.2210259723
83482.9830985799
83480.7686169307
83515.4735349578
83515.1200543094
83545.8039760774
83547.9593052027
83556.6280707982
83553.8366885944
83610.9865189337
83612.3188782571
83596.9524827517
83595.9901043534
83572.0638247375
83572.8191142064
83544.7533338406
83544.8379011224
83560.6734024211
83559.6857093452
83513.1677687134
83513.9462947295
83475.1216940384
83473.8307272737
83444.5594727693
83444.2713690935
83424.6796706289
83425.1449605774
83408.945970738
83408.9643415635
83391.5657604221
83391.5816927469
83371.0922847046
83370.8100627516
83344.8311987506
83344.975598609
83334.5582681558
83334.1771281711
83333.6166733509
83335.0141652577
83334.2884116873
83333.4779982702
83334.1900404034
83336.5646698325
83337.5567765793
83335.96437446
83336.985848802
83336.7484314756
83334.4763143551
83338.3047794363
83357.8427917591
83350.5722961006
83363.5205814834
83368.2457599691
83378.2672305676
83372.1413164255
83364.0045946733
83353.0229969745
83366.1710356964
83379.4261052919
83380.0122159706
83365.5217029468
83359.9786645754
83358.7308974851
83379.5811600924
83381.1762338137
83394.1258159904
83392.8844765653
83393.670785931
83395.1101945385
83395.7246488339
83394.8343560414
83402.427041446
83402.8170626417
83404.1359911001
83403.7523624827
83406.2323844044
83406.8865415852
83401.6464692764
83400.2867979238
83402.8464395145
83404.4154175608
83395.8800359186
83388.6154256815
83396.8325942683
83405.4083831189
83423.6252023288
83446.2214056383
83418.6437180461
83424.5402837788
83444.3235624775
83457.687189215
83421.433609111
83416.8952858596
83423.3884037187
83433.2731870327
83416.1728695574
83417.2500172789
83414.2223935334
83414.0464004399
83413.7746579961
83412.628511122
83394.3903369492
83395.2202244569
83396.3306326028
83396.5409813049
83405.6650338967
83404.8374089411
83414.3429888166
83414.7434982867
83431.8253381654
83431.2554003229
83454.8223457733
83455.7190086724
83494.2713126956
83495.2862397832
83551.6770219734
83549.4654956227
83609.7718159417
83610.0655673905
83670.1278378014
83671.568908248
83709.2761701118
83706.2764373946
83725.2278923665
83728.3504749757
83721.7211483844
83718.7786719914
83684.6408132441
83687.233566913
83637.9357828528
83637.5447105124
83571.2695416156
83569.6922179533
83510.2724022491
83512.1566735989
83460.5716689313
83460.5690935088
83427.047368282
83426.1827147877
83405.7773672077
83406.6834574559
83382.0066920502
83381.3080822915
83347.6522747547
83347.814551036
83311.141672034
83312.0393256547
83316.2796635061
83316.0850688777
83290.9318565938
83290.572770627
83293.9901833253
83294.7423679794
83303.4285244054
83307.2954212092
83306.5492875942
83302.7322342863
83276.5944934489
83282.3731709111
83285.0618233383
83278.5841080598
83283.048326511
83289.1615995998
83310.8570916082
83306.6383690095
83310.5293941296
83314.526159644
83319.2652507186
83314.3508001103
83317.1396375549
83326.941123989
83325.5191080659
83316.621608174
83338.2070195849
83338.3154156328
83334.2066357839
83336.9417756089
83334.3216208801
83330.2033245293
83321.0026541425
83322.6660089738
83325.2468435743
83326.826648877
83357.8814732956
83358.0967885266
83380.0333361978
83379.5207803048
83384.3126943115
83387.4295148138
83389.6062991707
83382.4283920779
83380.5364166847
83381.7131272692
83382.8276844997
83384.7245016752
83383.4838696965
83388.0870704241
83391.3886575656
83372.2779697557
83374.3525915917
83388.5035375229
83384.3909646493
83389.3705083873
83391.4999527089
83398.5398998095
83393.0959123464
83399.4095827559
83399.2506606817
83404.0253861863
83407.0793744384
83378.8983807827
83383.7105501605
83384.4744063189
83381.1215236492
83381.3719623692
83383.8618961747
83399.5003171175
83397.7141364695
83376.2761389446
83371.9012038055
83373.2619191962
83374.0055033835
83374.3370646679
83373.8712654564
83381.1875149817
83380.9521675676
83387.3359173118
83388.0441801993
83401.2394470259
83400.8571944844
83425.8145143763
83425.5360803089
83443.9780269001
83440.5467473631
83448.5475427895
83451.5456710811
83476.4502874029
83475.0244436451
83504.0755711134
83505.4319681466
83539.5989811603
83538.6613772384
83583.6649132753
83584.8497695462
83628.8103718341
83628.1306253902
83669.9857065842
83671.2814878905
83708.4816177635
83707.5889763163
83738.0635701003
83739.2820814231
83755.9650805898
83755.8829393702
83768.8334849081
83768.9600725098
83775.6831674001
83775.2395704526
83769.8781901521
83770.3116955497
83754.5262604774
83753.8554840929
83731.1721676648
83731.5981702637
83703.9596064413
83702.7633677309
83663.9919861974
83664.7054904677
83620.8400615239
83619.7053285188
83574.1986361156
83575.3277966065
83532.3521558462
83531.3957852548
83491.2419218749
83492.0762371908
83462.505223137
83461.1722802684
83439.2613974467
83440.3835612263
83418.8971491019
83416.6024241029
83408.5134662854
83411.3607158177
83418.3165004889
83416.877325211
83456.6800271332
83456.6302574852
83475.9269641869
83475.9971004973
83510.4199298423
83510.0224022971
83541.3324044613
83542.1812805889
83586.5371369761
83586.9048752544
83620.7185369671
83621.392374522
83667.6794835363
83668.0325793211
83695.1297235703
83694.7591662875
83720.6029132926
83722.1841429865
83739.3615813
83738.8854215289
83758.2244204783
83760.0192509861
83763.667380745
83762.213537648
83751.3526246689
83752.6252679264
83742.8611973959
83740.3807088117
83727.4474516585
83728.0757027532
83706.8999764006
83706.1790562352
83665.8347838023
83665.264794348
83634.5957444475
83634.534919109
83590.3030260417
83589.3306655155
83555.8045928018
83556.2487962643
83517.1099827214
83517.3317131544
83492.6416588618
83491.9669215953
83449.0595636364
83451.9741741797
83450.1965322801
83454.6258044436
83452.2193938928
83450.9269722704
83445.8750571638
83431.8242215145
83410.6512061098
83386.4140263492
83371.6164487247
83369.0822107763
83377.6539191125
83366.3334638181
83361.4617494405
83360.9208590711
83363.3963035816
83363.5862533436
83324.0302377183
83326.5175032439
83324.3019352099
83322.956862509
83333.6240834442
83328.1244103579
83369.3020030449
83363.5274062705
83367.7445631043
83372.3239016527
83373.5774992059
83369.6100211664
83374.4809441591
83379.8608534135
83340.66797691
83336.5735510693
83337.9279320525
83342.6228246065
83342.3001694297
83338.9045107172
83334.1849958675
83336.5579917854
83354.6688176022
83350.1694617983
83347.1482581788
83348.8970996377
83348.0978070027
83346.785228652
83350.3887385819
83350.530951259
83352.1340614457
83350.920785267
83356.8391991793
83357.9211818998
83364.7072024957
83361.4483192833
83364.3310275981
83367.1262559359
83381.4725805732
83380.8113228633
83397.1159424659
83396.899149769
83416.9621403509
83416.6960968086
83444.363630294
83445.9131763682
83484.5086213603
83482.7159157112
83536.93372319
83540.1507313709
83597.1692219547
83593.0558056085
83646.6896410334
83651.7693610704
83694.2194717189
83688.7192821566
83723.3386649039
83729.0611734971
83748.6361763016
83742.7483298075
83756.2270793063
83762.0197429115
83765.1098994152
83759.4271464794
83753.9230223691
83759.5352131319
83747.2621526711
83741.5698317822
83716.1162041378
83721.9676459699
83689.088479472
83683.5224397709
83636.7889751119
83641.6052191987
83587.1456950788
83583.2443769713
83524.5825825112
83527.0780426085
83474.8380672582
83473.2298442635
83431.8752448106
83432.5460298076
83406.086616373
83405.5362531272
83387.844199577
83387.9135774717
83375.8054070321
83375.713850339
83369.5084895298
83371.2950762511
83398.9427214695
83395.8575593998
83395.0222814306
83396.5775826154
83349.3432674259
83348.1704357292
83299.5061088502
83297.5337386185
83249.1794519026
83252.8127901085
83277.65973291
83276.2230740182
83249.4735231599
83250.5450131266
83265.9508232782
83266.5962633338
83252.8171496798
83251.0869774768
83263.0369530468
83264.635316879
83249.8286912921
83248.08773282
83260.6000482566
83266.1523977732
83269.7313900956
83263.1778530689
83267.784981547
83274.9120291595
83278.7289618249
83273.1422054126
83275.1411523656
83276.9030858777
83295.1603925778
83290.3877756823
83292.302157159
83299.4985967508
83299.2204868336
83294.2068054295
83294.6389017651
83295.5016507551
83315.6151670149
83313.3779398054
83311.5032287926
83309.3227480487
83305.243536919
83312.1656219264
83297.0479625739
83287.7935438157
83287.4403522075
83291.1162169614
83295.3643068871
83299.0191146944
83296.0999415276
83294.0285407039
83289.7859791061
83293.7669857745
83327.6390336559
83326.0940120785
83326.7164937493
83328.3339111089
83359.8389194895
83361.5087652875
83368.5050004688
83322.5748270553
83322.1486478967
83325.9704147401
83327.8782897177
83290.7224828628
83287.5297306083
83284.0496137661
83287.5234523278
83278.4391905491
83276.153975068
83281.8753408863
83276.8671623926
83314.6410766608
83306.4159651317
83307.5120025141
83311.4160856399
83333.9645005842
83334.5662106656
83335.1222730087
83337.8942929305
83306.0337769561
83303.3769076183
83298.3271924319
83302.3348143985
83298.4272164709
83293.0167358258
83290.45957734
83295.1504554458
83286.8318174935
83282.4301953289
83292.9682766692
83299.8522173805
83291.1612744626
83289.3643675564
83287.000017067
83287.341081615
83280.8641261979
83281.1108702928
83271.5581624864
83271.2668428383
83256.399849467
83257.8826533628
83255.5931677678
83255.2535636627
83242.6541862533
83243.866890672
83228.1949164059
83227.9410659493
83202.7418839774
83203.9684015641
83180.1538916972
83178.6031793591
83169.8384574695
83170.1339615667
83154.9692445504
83152.6820246256
83136.759628134
83139.3307749188
83131.3724033523
83127.3942399049
83128.1422684139
83132.0741100903
83134.4314496508
83129.4619110382
83131.9072914164
83137.1429191675
83139.263871582
83133.2987514488
83131.2860509323
83137.6846327649
83136.0523739301
83129.4208851811
83123.3990374001
83130.5378825736
83126.3713644064
83119.0791505616
83111.5135872026
83119.0289724633
83116.0530711846
83108.2223889444
83101.6656334528
83109.4230599638
83106.4720418377
83098.5766776989
83093.5138994055
83101.1810741955
83100.4433265221
83092.3303701673
83089.675592847
83097.8049785811
83096.7183588523
83088.9613355129
83091.0699630915
83098.8884353623
83100.0149479261
83091.9581124145
83096.219117607
83104.2252029009
83105.5961238187
83097.9748193411
83104.0250239228
83111.8999518499
83114.8659528496
83107.3524957233
83113.6702236362
83121.021299102
83123.5884229618
83116.4921977356
83121.4582679613
83128.0834175932
83129.0501044171
83122.7512621306
83123.8447587252
83129.7447967853
83127.158059222
83121.8841951996
83119.6388876163
83124.6079021585
83122.3688533303
83118.375057047
83117.6888601767
83121.7588835736
83131.908427856
83129.2861864128
83147.4378320167
83149.6992045044
83167.166432633
83167.0246471806
83177.7812062341
83179.2731582905
83208.2395489481
83207.5511429235
83226.66758304
83229.1645904578
83247.1281466428
83244.9332058816
83273.9895452856
83275.4534232286
83309.3918652193
83308.5943120548
83340.6135391819
83340.2868598062
83342.6265071823
83342.3353004784
83304.6802611602
83305.2578140831
83266.4846207083
83264.9006684612
83254.8775151036
83255.5259805996
83243.3532700772
83241.797212016
83200.4477842117
83198.9155351696
83193.1231376013
83193.1877867767
83182.5070001073
83183.4987247854
83182.4017097491
83180.7886426902
83189.8922466222
83191.0223025272
83204.1962076121
83203.6005069281
83214.1095411461
83215.4939187294
83227.3185904059
83225.9607723444
83231.8847988653
83234.397894911
83241.2316621831
83238.8500840602
83240.3697654756
83243.7240547922
83248.2463134919
83245.1025677401
83243.6078787998
83246.8973825509
83247.8542253037
83244.3089283553
83242.5478350548
83244.724543938
83249.4856554451
83246.3938503404
83244.7368491339
83248.3438888859
83244.9143036598
83242.0994695081
83241.1763171069
83243.716954216
83249.3564954238
83245.7924464839
83247.5317083733
83250.8205445273
83245.8653289665
83243.6454859111
83245.781642805
83248.8792005775
83250.9053450136
83247.8631199079
83250.7880439048
83254.197840045
83250.6586597403
83247.5686486652
83249.4898172644
83252.5692398388
83251.3602765018
83247.8451889383
83247.707975349
83250.267788833
83243.9636832545
83241.1164491871
83235.969879053
83237.6049760656
83225.8336737503
83224.2322808007
83213.9345393156
83214.6469659066
83201.9964563682
83200.6924025601
83191.6202620817
83192.7408836619
83191.8232261052
83191.2939486943
83199.7587062337
83199.6148239028
83204.1466591955
83205.5258901418
83246.8928438174
83248.3003734465
83250.2320739905
83248.5406298152
83255.4000177236
83256.0570512497
83258.7941431129
83255.891146251
83266.553692735
83267.6433411024
83285.5042684047
83282.3074033045
83306.4367744852
83306.3734703358
83327.1082898386
83324.7218717963
83347.1542024402
83346.8766092067
83362.5559939306
83360.1608461808
83374.6653104477
83375.4200846775
83384.3192130629
83381.6192654854
83387.268792374
83389.1389512965
83394.5750910496
83391.9501560908
83401.454912914
83404.1902551459
83405.2130066275
83402.1375784307
83398.2275481208
83401.7747886334
83402.7425524895
83399.3088862146
83410.0604112403
83413.925582918
83413.5259634146
83409.2569815645
83397.8298282203
83401.6653090566
83401.1259041321
83397.3573820825
83405.0846411986
83409.4327719726
83407.4511105854
83404.1222864328
83394.3238850058
83396.8601049013
83394.337304461
83391.2266631794
83388.6583668333
83391.3714234852
83386.5736193254
83384.9271876031
83373.2208374259
83376.0246916892
83365.0351532164
83364.3390185367
83349.8628864228
83352.1674631414
83336.1495196185
83336.4639159094
83314.8037116847
83316.922000177
83295.5913749194
83295.6984786355
83270.0634683893
83273.4036541821
83256.6880785728
83255.1409434622
83246.3064375695
83249.3160490479
83247.6807664805
83247.0110000638
83242.1995399028
83243.9031632744
83310.1995987189
83307.5348484129
83303.6957674335
83305.0857748345
83304.1894644068
83303.8111271262
83349.1026618421
83349.3115160347
83359.4758482631
83358.7660197435
83378.0297215056
83379.2269217921
83416.4657791377
83415.7647927733
83333.4780299661
83336.9468274109
83386.1026038647
83382.9653683761
83443.2940491525
83445.3636707816
83494.4116490946
83492.4628459987
83529.5116392936
83531.8369611062
83554.8048320794
83552.2330905754
83569.2534890023
83572.4132981001
83577.7394032712
83575.0863972034
83578.4985644641
83581.2411723767
83581.0584260387
83578.1831888016
83570.1277238344
83572.597989086
83562.2536927357
83559.4812609413
83535.7674518546
83538.1113813246
83505.0490695332
83503.0281150233
83454.6575187813
83456.7496683706
83398.9123736929
83395.9231389691
83344.641128295
83348.2116807105
83320.6890812117
83318.0519107417
83314.0195051091
83315.1370403104
83308.6208871681
83308.3755628465
83254.0062475175
83255.1476032239
83267.0719569912
83266.772557338
83275.9336461852
83276.8170060581
83283.0567297909
83282.8915634988
83304.9163197065
83304.4797648912
83312.510500969
83313.4735397425
83310.3269316374
83310.4878921804
83308.7885861746
83308.913284523
83349.3481898443
83348.3331177999
83357.2557328663
83357.2965566012
83369.8357372126
83370.2287153317
83391.1728711084
83390.3814809202
83427.5388839167
83428.0404706213
83482.4453447024
83483.5642682827
83544.9102351495
83542.327291778
83597.2185995388
83600.5645757393
83641.7920941024
83638.0006324173
83669.6858595579
83673.6020193395
83690.5667295833
83686.5451142157
83698.5557584851
83702.4159017625
83704.4541321716
83700.6302187022
83695.6712432084
83699.4884080286
83689.3513589297
83685.4932544867
83662.272650435
83666.3013789224
83635.7426727414
83632.0120746325
83586.506942645
83589.9318316299
83533.6162986568
83531.2465544361
83469.3962317871
83470.0308383232
83476.7211257768
83484.6332476737
83495.1815269786
83511.4007276585
83522.4927403172
83516.0579034717
83502.9840658038
83492.7673221385
83478.2191456213
83465.1923639263
83456.0971126231
83447.9935516231
83445.6611945649
83443.7586702393
83446.8829167606
83448.6049992067
83455.7288794523
83464.1069915882
83472.6226740755
83479.0203726924
83477.7906942761
83470.6183031632
83447.686236695
83407.4558484463
83377.6358287389
83357.0101012762
83270.9791197657
83269.1387145512
83267.4422114432
83324.3542329945
83313.6455895228
83321.9202362813
83275.4827335895
83270.8100300604
83287.6171341701
83292.4376013988
83273.0929176033
83270.8609835336
83271.5560718688
83273.0504041257
83260.9891405348
83265.8668052375
83256.6869080974
83236.4609617711
83242.8968786469
83256.9038887612
83266.1460525751
83274.702685832
83269.547174604
83266.6064273848
83281.6999015116
83280.8405904476
83279.0355119481
83276.9904257128
83269.4256684294
83272.7204764504
83264.4794526334
83259.7527293118
83253.1136528248
83257.9153422626
83248.7501245458
83244.7709979371
83248.2641874672
83255.9349972541
83247.0682523398
83243.847759803
83240.9909063043
83243.2621389208
83232.8759614324
83231.7900906277
83221.4556540525
83221.6480470375
83200.5087134687
83201.4001268441
83187.0876946763
83187.9943201521
83169.1178576469
83170.0822019597
83153.1936428042
83153.6131508643
83128.7322527541
83128.5097327253
83101.5437474612
83102.5140775891
83092.2943807514
83091.7335767971
83089.9979088932
83089.1855658174
83092.712414913
83094.2882425556
83129.1902226752
83127.8705357206
83229.0163977198
83230.1769967682
83366.932219257
83369.8980803317
83426.8660570453
83423.3260779213
83368.5219413594
83368.4750128282
83234.4306017265
83233.775615967
83129.5121098875
83130.6875575631
83055.6791754101
83055.1940363418
83001.1838142904
83001.326840633
82960.6137938513
82960.5748497436
82931.886108486
82931.9050378106
82908.4629910847
82908.518193198
82893.6375085448
82893.4450237594
82880.7986255866
82880.9692786717
82873.9532345127
82873.7833658591
82869.230436772
82869.4713405703
82868.7869386209
82868.5616125134
82872.2899038202
82872.5018171392
82878.0636365539
82877.8418094649
82889.6671072621
82889.8526377621
82903.8227325858
82903.6794688419
82926.0297012399
82926.1196890035
82954.1493689833
82954.1866481266
82994.2638628076
82993.8909903096
83048.1237163203
83048.9042800424
83124.6617905679
83123.2418862353
83229.3013012751
83230.3220416539
83365.948947414
83366.2511747787
83417.7931619974
83421.1803001236
83359.2142539088
83356.62336867
83219.8452615448
83218.2461263508
83119.4888400428
83121.2755488603
83090.1464606823
83088.4769672818
83087.6341900442
83088.7474563666
83094.5279018193
83094.8605198597
83107.7916418909
83107.1613412324
83139.4844760125
83140.1220279105
83156.676015807
83158.1501719608
83180.2473935031
83181.2353709954
83185.0262516656
83185.2604248438
83201.4331041075
83200.9292101753
83216.5854278313
83217.6143599117
83199.0892869703
83196.6123767159
83176.1148360111
83178.5608045377
83165.556168188
83163.2592907912
83145.2589925706
83145.2829705726
83113.3062556239
83113.2609411621