/*--------------------------------*- C++ -*----------------------------------*\
| =========                 |                                                 |
| \\      /  F ield         | OpenFOAM: The Open Source CFD Toolbox           |
|  \\    /   O peration     | Version:  2312                                  |
|   \\  /    A nd           | Website:  www.openfoam.com                      |
|    \\/     M anipulation  |                                                 |
\*---------------------------------------------------------------------------*/
FoamFile
{
    version     2.0;
    format      ascii;
    arch        "LSB;label=32;scalar=64";
    class       volScalarField;
    location    "1900";
    object      omega;
}
// * * * * * * * * * * * * * * * * * * * * * * * * * * * * * * * * * * * * * //

dimensions      [0 0 -1 0 0 0 0];

internalField   nonuniform List<scalar> 
209453
(
3.61329037248139
8.63390364149945
29.5167521958788
27.1835403107539
7.67709907496065
7.41572248402962
26.2354170262794
26.5414712352738
28.1536831941719
5.81500953128405
5.56837863010176
2.92994398840325
2.73390551585984
2.89124097080748
3.05256987232325
6.107679700137
28.1690853337973
29.1579817036026
6.08429456132275
6.23266475583607
31.0736058380255
29.9402894730688
6.45994933142345
3.24898505074592
3.0531294103756
3.30426619096084
3.49666107411429
7.25775452446073
31.940122720795
33.2850822819261
6.90265113209493
8.88822092967404
38.3305594333987
37.0209432069132
9.45161207797592
10.0953745081004
35.9646161915729
32.166835146053
9.11730181475392
10.1085216021078
35.9768099983012
34.7378016758039
10.2596061142957
9.78457289834602
31.0072525396572
25.6635736656959
8.13724449544921
5.59078997960385
20.3732221694116
16.8696881576845
3.55628576669941
2.38847549802938
14.4795575919168
14.0528735780954
14.3078949872898
1.08329883666898
1.09912210836263
1.02230778870424
1.00389672882214
1.00292405839465
1.00200670880196
1.00596338782614
1.01298999825345
1.02855537386708
1.01318016215554
2.48493470472489
17.5239307917574
15.8854158569227
2.40822189845394
1.15515424005096
1.81383047245019
16.0655072154997
14.4258427708416
13.9025837854957
15.3789557228699
1.15331105862435
1.15752786639841
3.88394720948643
18.7305201472351
20.1815839086386
3.92607755224512
1.33467137361089
1.38300131088674
1.39071014959955
1.33773674561051
3.74296642947753
4.01218413711551
4.02967913386428
3.7534188645521
2.63642078942049
2.66389063158163
1.39960798900259
1.34260133256038
1.1117796399526
1.14339489381368
1.41879132114168
1.28934009720303
1.40518384932756
1.50927548126164
1.54055256971366
1.51031978125297
1.65424092861908
1.69023297285739
2.10302817332688
1.89058664607234
3.87732572710292
4.34615148846214
5.6424342892635
5.47325612335504
11.4933268443987
48.3317094126509
46.1556483770875
11.5422388306048
11.8628878356704
44.4670951365144
39.9875573236342
10.7014100350972
11.4967717630512
41.0200187277638
45.5611455467591
11.5840140247829
11.9839122397234
47.0162107925784
52.2145718269858
11.7315332247849
13.2984531897605
61.2230123656435
77.0496296317983
20.7228821949299
16.2146184483319
58.8091101235655
50.9769720818592
13.4475508849012
13.8778397327931
49.739565825791
43.6202650323313
11.7520932469726
10.7312640021704
39.6240280674312
37.1717543189356
10.4273466232544
8.22739732903032
31.4282131686889
30.0128863912921
8.00348468753555
7.76082571251042
27.6902372753889
23.8655382107698
6.73862189445212
7.31371125650809
24.5630559763766
20.4120999855767
6.11833461718015
3.8306993490979
16.1769709165111
13.6650927036169
2.4633629324799
1.03664413618785
1.00859979736418
13.8942970851214
13.2922704103127
12.1490821764691
12.0440115157552
1.00303975458275
1.00997090905245
1.00308903214509
1.0012545800523
1.00310058863793
1.00943051036692
1.01168213841511
1.52896436534761
1.47065812300915
2.18604630820779
13.1957292809638
12.7852567268157
1.7834853261891
1.00577297772613
1.00165557479526
11.855329528533
11.9247130586182
13.2253416316761
13.9077561168186
1.00408891319029
1.00981967820585
1.00101135058185
1.00057754950127
1.00020954274482
1.00039045441847
1.00090566355581
1.00038280335676
1.00067329541865
1.00296534617437
1.00119625925561
1.0004080780188
1.00034173704886
1.00050830219099
1.00009687117268
1.00007045550291
1.00015246993266
1.00027292804339
1.00064722242164
1.00032968778782
1.00065754369489
1.00258491586363
1.07167749082225
1.03809349805521
1.0043199553694
1.00820992841587
1.0310325578233
1.02173054865155
1.03779209412827
1.04980225111744
1.07344560558275
1.06269957848792
1.17277881282342
1.2125641623247
1.2539174304251
1.21497024658856
1.26666259747965
1.30703002811332
1.394998793027
1.34156178948896
1.4457764625881
1.50862838986296
2.54490244129902
2.30044807793155
2.55621565132541
2.71827208300515
5.71555478506865
5.55401698403498
5.54896577872517
5.7033499573615
11.2155822497608
12.789625256899
14.4846457510614
11.8661035323316
11.4779006506434
13.746575109486
20.4648243399168
88.6902118804812
66.3627638863789
16.264085899767
13.5504705566086
56.9363888548397
59.42793886215
14.0933484041135
18.8856641108937
61.799737254856
54.0956295532246
16.5240622272842
12.1426944508017
40.7923210716915
35.3110869344246
9.43805773988265
8.54499115687891
32.8569839740036
30.8755605671529
7.96140480180355
7.93539878225715
30.1854704584806
29.6303785297497
7.9671188109924
7.96826312373295
28.1144180360428
32.9197921006248
8.67930015108282
8.16556269963732
28.1826840026699
28.1864218745554
7.37834605425807
5.40128178815183
21.1722888985594
16.2155288390875
3.59867237792491
2.60662310358302
15.1428656625751
15.900377825855
3.60424160366839
2.20301491286651
13.4830829508199
13.8094207255009
2.07579518240389
1.01102651643584
1.00366803253273
14.9601037288318
13.9559883193783
12.8202303315194
13.6187198276147
1.00310964531146
1.00857158045284
1.00047888923774
1.00020624518852
1.00020694977593
1.00046576526605
1.00049249776977
1.00019393668558
1.00018550287968
1.00056248838511
1.000608032307
1.00009699023193
1.00002113695128
1.00001809141526
1.00031924074229
1.00038153963756
1.00172166208901
1.00133154578109
1.00692755791788
1.01136976184602
1.03465336092134
1.02455453365436
1.03506251292848
1.04516016716837
1.06203343380092
1.05510837530852
1.05147396447803
1.0581110826568
1.08476091054969
1.07741280066347
1.09248556529069
1.1049349677261
1.14375199566068
1.12910512278057
1.17684225848114
1.19457458825472
1.25909892296259
1.23405622043262
1.26804502304678
1.29842189616775
1.55030233277312
1.48374157875904
1.50727036747437
1.57494268306313
2.5949203542663
2.36088795276827
2.43217541496639
2.65306684953497
2.86032540978454
2.73232849838637
5.6559594944544
5.82051943563336
5.80358407049138
5.62926852477945
6.28492237769176
6.28890463896597
11.7623932595756
14.2103362149796
21.1424305741435
91.9624738659715
69.5521330882789
17.1338520743756
19.8737841853624
26.6087903920922
104.236692143286
77.2158812863596
66.8722299749569
15.6883598246054
17.7277988499346
76.815854091288
88.3976117200066
123.372187943835
29.6985287455903
21.2188516413788
17.0715330271561
17.0981765330191
17.1722594024339
17.1055837405692
21.634651145431
29.1838258789962
130.14711659003
94.0070149514988
89.0054039217673
21.4533475928727
21.063570148357
91.2607031406421
90.7941918738756
21.2146962650505
21.0873437193531
83.5129373454717
19.9942860009359
10.9771138977563
18.6409944246188
69.3368408950867
52.0219540588737
16.2928972974347
14.6985590231088
44.7566059143266
35.4443896576624
10.1448068565847
8.23770100722703
32.0913392848605
34.786261068594
8.50768928429225
8.42687505894083
33.9532260861505
33.8930900022123
8.48491256017577
8.62095249782453
34.3432188907987
43.7810163241144
9.61529284371685
9.96273482641187
40.1164398066563
34.004408176482
9.07696079248142
6.66239978784503
29.7448723360761
25.3125640441032
5.908274866381
5.4844849329486
24.8844679199433
18.5318776461458
3.65199610106931
4.79461493099756
19.0576356337568
17.7774436930704
3.80034552688187
3.29551527384932
15.7710757489983
13.4752347993831
1.81009331177669
1.45466800893638
12.5243399247718
12.4917367025243
1.42254585161075
1.00767617617192
12.8052007113883
13.6019592938006
1.00275040855082
1.00038179354183
1.00083995967068
1.00059154514709
1.00021213299575
1.00018580037898
1.0006565816223
1.00079107801518
1.00015345750361
1.00009378441314
1.00236528825676
1.00066223865983
1.0004036465222
0.999971648819917
0.999959127003124
1.00159647139296
1.00148033558352
1.00645383120201
1.01643929169523
1.03617959409672
1.01672599208199
1.00219260863964
1.00438287825952
1.09089144941482
1.05113827347068
1.11516243061832
1.16417069758158
1.19404979134913
1.14054990900775
1.17628341226689
1.23060557292116
1.07662814823712
1.0642015338439
1.09438841463412
1.10744839998731
1.09024264041841
1.08185143621993
1.11783993755464
1.12648906872109
1.12014241851358
1.11158811940733
1.15770374820296
1.16799399337718
1.2316615756755
1.21382061344627
1.24948041394853
1.27437019600368
1.30261398202657
1.27080740127269
1.31531826204249
1.35543993070308
1.34763217140759
1.30820970794783
1.52727061019184
1.59827581220693
1.62261271471117
1.55524010374154
1.60353750779044
1.68033420338238
2.69833961773971
2.48994934712965
2.99088457511999
3.01966554729316
5.99546998756102
5.82663468565969
6.5567811167233
6.46856394707374
8.59119567673765
8.96924776477062
16.2982276051752
13.5635033039799
8.15996348238602
6.72578631476596
4.57777944761167
2.67565935025477
2.30480932013767
2.32059833444624
2.35540245526297
2.33128792949134
2.28496263341083
2.92836022548631
2.89316363487612
4.68808924540344
6.73556971704863
27.256452502152
23.2922965789865
5.82662587066043
4.52325547366373
20.7467646736637
19.2692894597423
4.16699713120508
2.23719780719384
15.2193750349865
14.3935451100722
2.06100392932418
2.00701252898042
14.3146860286408
13.4181617374284
1.77346209663286
3.19507720222605
15.6313178354879
13.7467396136974
2.01508357955566
1.01089993782849
1.00331591570071
14.9114810435736
13.9176118491064
13.1720223910584
1.01404090372267
1.00856896470048
13.8527956635321
11.8119535550168
11.6874946334188
1.01081203391624
1.00693653693945
1.00032368108615
1.00083429661822
1.00080494982608
1.00030180604522
1.00047874663421
1.00135080607784
1.00234192284157
1.29710910299909
1.34584585503665
2.17880866573397
13.4147715786032
12.198992334977
1.62449509338093
1.93143877271018
12.3458471100072
11.856692795121
12.0248777810369
1.00249986964541
1.00902331440743
1.00233893241969
1.00054614277329
1.00177036959292
1.00909999321082
1.01911004150938
1.00180642566032
1.0989323417056
14.2885422151649
13.9182943229143
1.10836945109762
2.52323067663416
14.36269350288
14.3825690765412
16.1561016149533
1.65858523686343
2.3404299787871
1.16160643565116
1.15075640339463
1.18520987874563
1.16842441253428
13.8977378585169
15.3720833131391
15.4957255378379
13.6983140503467
4.46611659191382
3.90304125638166
19.1208674550225
17.7117482203575
16.7645982649577
3.54547617036956
5.48871826240756
19.9950921013134
22.9946758929949
26.1276944273126
6.04551234668882
5.715179037886
4.21556442738771
3.60821425796454
1.36614582119619
1.4748274265907
1.48608296386942
1.37392889683623
2.49392472443747
2.72821978386204
4.22164006073145
3.61816693676805
5.6917287326916
5.70824698481172
25.5114100034137
29.5614702567814
28.018920497614
5.72403376853467
5.83279410883844
26.4048396579453
26.0433545378435
7.50978456609701
7.73275298065403
26.9076795726005
27.8521852933552
28.769349535654
5.92996146964692
6.28378420175646
3.05072031720785
2.6959299250875
1.41519959663666
1.53787832197495
1.5703428830643
1.49565221026868
1.21702763235856
1.27047742164353
1.31968481220816
1.26752552939
1.13318767840634
1.14529601771633
1.20081639021891
1.18840187982786
1.16847581827103
1.18134609529102
1.25383796938537
1.23284260113727
1.27759437415202
1.30587689728589
1.27936003763157
1.25346896882281
1.30643087563871
1.34176875514685
1.33045717288098
1.29622793602562
1.34934209451171
1.39827728880753
1.41844603211798
1.36497493340845
1.35585000469515
1.40770203279843
1.65334598441135
1.57429461717199
1.59544105967019
1.67294007437716
1.70742366314252
1.6314138257665
1.66231513071243
1.73084747707437
1.73319171070731
1.66155264532124
2.4917121611058
2.67624290334549
2.75223185721854
2.56657226600781
2.99970812135051
3.05345970661695
3.07459664106591
3.10671512165177
3.45036174216852
3.08119808541569
3.037679701584
3.00874118361257
2.98489593543066
3.0308284779018
2.71217202664018
2.51552448795888
2.48448338689584
2.67998975127411
1.700115981486
1.6251998372847
1.62889042470427
1.70122782138786
1.73114554009026
1.78548445738261
1.8338447979564
1.84746124378738
1.85316468741249
1.88414895427856
1.88046247843268
1.88705617432173
1.88836296260243
1.93352379867519
1.92424427659209
2.0110864060029
2.20644228979765
2.21626321163129
2.51605990500946
3.14073134687714
3.38911510773153
1.80575188473396
1.84972241409426
3.86961302867804
19.2770873328919
17.9432021196624
3.36001285996599
2.71810468223102
16.3471935142476
16.8166512309539
3.21586544140042
2.28057049782369
15.2089724425305
19.087268637102
4.18720253490552
3.6357654532847
17.5225439050945
17.8778445899341
3.98680977426145
2.90017640209164
15.8586417245006
16.8110980948447
3.91389558787093
2.81902526660891
14.2387091353686
15.3744133119018
3.36642666789038
4.4304900524708
17.8733184860557
23.1679238428965
7.02883669536698
6.12968872659896
23.0535502873184
25.4916951482771
8.16531467005806
8.72393283127241
26.3663720770597
31.9311563939444
9.64190350028938
8.62417470661286
29.2464673151891
29.6528268882828
30.7211210046
6.02632563045305
6.56695222505162
3.18506651665325
2.8298949699611
3.04401983154076
3.39886635078742
1.66875781025151
1.60596372245836
1.79643327956636
1.87480099707987
1.39677980802097
1.34236235474746
1.44584511827748
1.49834963301291
1.27765214965471
1.2602520955816
1.31242114086871
1.3371692948893
1.30585354321199
1.27762204734882
1.33938671834492
1.37771390348033
1.37277544565268
1.33442983985589
1.39767082844524
1.45312497903177
1.41585646971188
1.36326171181335
1.3877187529396
1.44215482454517
1.48172007630949
1.42657396451747
1.41720888946604
1.46350759040268
1.46764445017497
1.41957003538127
1.43673042817262
1.48445983961877
1.47696707049172
1.42275884431619
1.41598530334576
1.46302183979939
1.46484264120036
1.41466494754504
1.62745287549685
1.69699458522205
1.73149149114356
1.66419864699289
1.67434568700587
1.74508047945364
1.77528295521463
1.70225236128224
1.70248180523811
1.7708265511868
2.69164866319653
2.51105419532834
2.62284320990788
2.79998889592498
3.10953057131253
3.04411908613527
3.34423333466226
3.24017067454083
4.6012457657006
4.95413509608217
5.01024122262654
4.66700241684503
6.55189382367754
6.64398476425808
9.15584499342425
8.72948221171919
15.6582274684817
15.635980336175
26.2969837319564
114.905230603296
88.2614652709732
21.0937324609588
21.0695033288087
85.7025635952731
84.7857699482443
20.5348809116825
20.8438634428492
93.7520332927072
94.9412833623774
20.9048091284739
21.0228927431658
98.8387359173166
82.0035637095703
21.5231390116793
23.3358884579308
75.4373536699326
68.3849330982479
20.7677592247547
20.0089279522699
65.639325109473
60.9873987441374
18.3062911981397
16.8365254960766
55.1159837222735
49.3592249794618
14.0789893114648
11.4658950809887
41.3995568203512
36.8776551172024
9.46325728474571
9.79455125895142
45.5415678926469
43.7682531352132
9.44735918700059
9.42768726957075
42.6948480673482
42.9409375190357
9.47952652230316
9.62241284642762
42.3305039290878
43.7511921006121
9.73770777455771
6.95363595967727
37.8528826460864
33.4002599977873
6.88078047192654
6.72227980942797
33.4566955129883
6.05916685534011
6.741336065852
6.93166441195605
33.3622909410182
27.4250796767594
6.41190568777951
6.33470601712171
23.4704040712111
2.40414062968975
1.15099940948115
1.1229308743167
1.92923574458835
5.41131106513375
20.9369308713438
19.6541652106026
4.06048180951729
5.85316583883114
21.502745684207
29.2663343431265
7.77910421090518
9.11560075032419
30.088500592831
27.7960674644396
8.07699188196589
7.87782695043107
29.0672846617426
34.4505758636655
9.92405559200364
10.0230434687832
35.644301261321
32.198824322552
9.23805424896101
6.64737933686555
6.06241688877505
31.6710425214004
30.6279036496764
34.2021201131435
35.4267857695527
8.06793185919297
8.93126417048064
4.00954725269604
3.56698916616488
5.15481168640756
5.79204874397047
2.23920102570726
2.13909019456176
2.21856194961239
2.32082139498032
1.56202055088144
1.50439410577935
1.50680795565838
1.56226296560434
1.33557070812208
1.31188671875964
1.38270656502296
1.41859745168011
1.41483431764505
1.3791331736723
1.45789572456998
1.51329278255867
1.46655690898478
1.4093375389249
1.4457580320283
1.50070787225719
1.54852693777236
1.49630573709363
1.47981616005771
1.53079842513204
1.54120415188663
1.48980695025796
1.44458413930344
1.49482482519883
1.54604952353708
1.49557649340627
1.4711093843608
1.52637062203072
1.50672163429084
1.45989129803789
1.46247602899009
1.50951398560186
1.52690558758763
1.48190576181836
1.46458219081446
1.5174733036683
1.50344854268626
1.45449941815918
1.45438054628873
1.50183151945558
1.53722460715881
1.48947690528653
1.69642937533712
1.76724447002795
1.78281862388067
1.71323704017886
1.73892021033315
1.81910876347065
1.80833838728212
1.73996762101228
2.53071720818609
2.71224624708105
2.85696928635798
2.67797876856171
3.10159852135542
3.17057498969844
3.30151781257125
3.43748139650816
3.54070987326067
3.3720648683463
5.3013415706208
5.61211896955541
5.60974355093798
5.28897102495838
6.68438494806872
6.76736625917211
9.30239933321645
8.84582831273654
14.7926387301435
15.2956600847147
25.1281988893636
105.911428459797
82.6265425907183
20.8172202138049
20.8175836358657
83.4471682065477
107.652895652079
24.9096845428242
15.2641889569633
14.650827640456
14.7665654519187
15.3996777941412
25.0497159622834
111.672788894565
86.7373841393264
21.0443956600351
20.8431208665117
92.83544600097
87.683125592713
20.4135644851193
21.2684680430794
99.2487352695172
106.519477966836
22.4365158498249
21.590881017172
107.003855262464
99.6032571095284
27.9297527635099
31.5541310547741
101.198581735067
88.8018881794497
26.9039025689296
26.2394182186156
86.5179343341661
77.5257880473081
22.6328407426357
17.0635276035619
63.9069012329171
77.3794819357718
19.1360505587329
15.0271717228453
53.5969290568417
55.2492269301015
13.5332368591869
12.3338911829264
51.4944781252282
47.9511882015202
10.6389525296334
9.89747863410659
46.1296863394153
43.9821969407982
9.68852073738636
9.62621612999259
42.4255660140115
41.6850171266168
9.58430569701895
6.92773352722856
36.100541113152
36.5504967057084
6.90346409470732
6.78472673484036
32.680249034951
33.1561397157651
7.36958177128431
9.26079417186084
31.660095470414
36.7890269023211
9.90320806353368
8.88341280974307
36.7281835334522
37.7347579740598
10.0595426165669
7.92719333668127
28.8096135785678
21.071780046319
4.92650936221189
5.70908305304285
21.5432705803854
19.3485126441846
3.98945651568345
3.51069954298372
18.4824654226349
25.9556687954572
6.31256361804458
5.73704353787804
21.8901314920921
27.888054439861
8.48277922696358
5.79240139390111
26.6157364882279
25.7940431776818
6.31548172943252
7.01514878637921
30.0668171623113
34.8950723196628
9.25694035419405
9.27075643793691
34.907342135908
30.4328662316141
8.29789563597577
8.70141644820602
31.7650630567735
37.7301733394766
10.7839464390484
11.7788536205119
39.9674422718527
37.9860815800024
10.9484724703247
12.8381247285428
48.6172756007456
42.8803062240581
44.605530229096
10.5316509977579
11.6120185578476
14.3903708720491
14.0413419204489
58.5804637242357
53.6983358409956
59.2433615314123
15.0328936035867
16.2753105480364
66.6225665667567
64.4718450432824
77.3593730915927
19.4731597861444
17.7036032191349
14.9831968509487
14.5322843340469
13.2884019293608
14.4001104487529
6.01089090144798
5.42109515513044
5.40209978623668
6.01735098103594
2.36228963455921
2.2408622530127
2.36600015713441
2.49965823404238
2.41737112457363
2.30759533499253
1.58872163436301
1.66016662552481
1.64603533332303
1.58092579533843
1.67410795264083
1.75314706879225
1.52810816041034
1.47309572875996
1.52513391464336
1.57523823655418
1.64749875512797
1.60030242735235
1.57525960484664
1.62801499613478
1.63096945660287
1.57900722218626
1.52277757718377
1.57591336302835
1.65688981338408
1.60047495393821
1.55906462376521
1.61421174292588
1.58573728847979
1.53479243771224
1.54457761644081
1.5973150926664
1.65520777645363
1.59689493111437
1.54216002008929
1.59567596782931
1.56882859433684
1.51095028142791
1.49724560327377
1.54728594929062
1.54853047179882
1.50039982532345
1.52285899986495
1.56811249760101
1.55658462611729
1.50253837564504
1.48969714000841
1.54264756024743
1.57951184046014
1.52213370753806
1.52215493626104
1.57174797173481
1.80312833272018
1.72645912993352
1.75010148442175
1.82414368611185
1.86300688068749
1.77575139279166
1.77778890221349
1.85236531072139
2.73740577440126
2.55376500315931
2.73575958909751
2.91763223636542
3.24393685439879
3.16402334244453
3.22979481277688
3.31564696081355
3.43148950310489
3.61835177151998
3.69907411632656
3.50357706192645
5.64557227620336
5.98597470445674
5.95389985705612
5.58799425324748
6.87282973848521
6.93379251007342
9.54510343255105
9.08009650803462
9.42958041557256
9.86833235076267
10.2552418028812
9.85263474491786
14.9918594595012
15.644825886887
25.3570264613945
117.248186532278
91.2006783991192
21.4391283340328
21.4120842305058
98.8640816931839
114.904521448043
23.6183831951843
21.8804596680562
115.582705039471
115.709506792064
28.8845373251184
36.5433427330406
149.062557892354
151.276530951497
38.0694791143558
39.0703314941799
135.705388272911
117.766080837626
32.9800867224454
31.8393393128298
115.957924103506
121.696122628328
31.576395435755
26.8753438594742
109.629391274682
108.364983255131
27.3630026418777
20.5708854357384
79.2440035581653
56.1050375650026
16.6009283705313
15.1519413714989
58.2039548148361
53.6698900783194
12.3399068570129
11.1797969657647
51.0245786626796
48.5037198324773
10.3956556569867
8.80944907120586
42.6691890305748
40.96894991394
8.19423755699008
7.78167819358267
39.9095080055899
37.9285314591953
7.59442811602471
9.18455588530949
38.0102735226106
44.3607881749522
10.6524666549139
10.7403953568522
46.8557887926114
46.8325580366262
10.7454848547026
11.1351949227062
48.1461761672744
49.9378621356933
11.4941915321968
9.66204460482483
38.2822831253586
39.8721294129395
11.1667551376197
9.40982798148506
30.6126320539462
23.3434338633384
6.07081943242276
7.47414399528846
25.7983515758531
33.867469540636
11.0610716740711
10.1249835216748
31.5695785399677
27.475225465767
7.20218445026609
9.34778381032416
35.343281572596
44.8079097262031
10.3970271766041
10.0174972744465
44.2320838976496
44.3875388745295
10.1000349766429
10.1140758056897
40.1737876095534
35.5524108467165
7.37326726730657
7.11848492716545
33.4615352272119
40.4751831954161
10.3344798911861
10.1859541753685
44.6234490115858
35.7154854467255
9.3045618790943
8.85623149252118
32.313164538398
35.7549413253371
10.3505288292636
14.8257398155244
46.5974692477736
51.2039145425116
15.386584018721
14.8732281997873
60.1844550518055
67.9611834121639
17.3407388218895
18.354078083842
75.3108911752925
79.0971882484595
18.5807152963432
17.3194804214803
71.7593403138582
74.7352578137658
91.098360231205
19.762064935087
19.9294984630232
14.0211206186147
13.7797557953796
5.71159186462193
6.32287677388707
6.15022057431849
5.58002934607257
5.76757555671223
6.25412274569929
2.66629700430583
2.52026731950975
2.41415273002094
2.52430055479791
1.786729275917
1.69867665257343
1.76382181388318
1.84401158801018
1.93542773105533
1.86265029384689
1.8428380128974
1.9106700801969
1.87266981335492
1.81457802396283
1.63075801056542
1.67680188446906
1.81181284635973
1.75710165446765
1.71202387813916
1.75826470954869
1.73539437380228
1.67775218335401
1.66643370177544
1.72453223696457
1.85282021850765
1.78564508432852
1.69411199240545
1.75836603518654
1.6957216317399
1.63635630977528
1.59489454172808
1.6492874380456
1.72799981446306
1.6718276896653
1.64808494568839
1.71997357626419
1.64503206996707
1.58637009847474
1.54744661717896
1.6104670289542
1.58384520851782
1.53015004433513
1.53274818976055
1.58412010564499
1.60700999406131
1.55930261147126
1.53725824526657
1.59428557329227
1.63004377462418
1.57056903290967
1.55332557937566
1.61377310768682
1.60525032755885
1.55326494035163
1.75641883808698
1.83759636025126
1.86774441475584
1.78786359924786
1.81382592376785
1.90751636829345
1.89846618480474
1.81757618745615
2.58054864938479
2.76519749722629
2.98020424541438
2.79702460554711
2.8593002624404
3.04377748451231
3.39712406040831
3.29940771852542
3.37113717352797
3.47565081232397
3.57012995238123
3.78101245774923
3.86814308606951
3.64701362373629
5.87879641922655
6.2571781061503
6.21656346674863
5.81171598688915
7.1131077759688
7.12613003647614
7.31487796043759
7.39434876779898
7.69816351568069
7.5247175726765
10.6893670715341
10.3288492482311
15.2977122799219
15.9765711302136
25.7997490884267
123.538478796402
96.0805351652581
21.9775281529847
21.9078007468629
105.381534166334
123.782442020663
24.532968852176
22.2740758728474
122.741994622008
121.830198243
28.2369867676624
35.2683464045447
154.062287232771
147.751963493646
37.2797940166065
32.6753921525985
119.00423864762
126.560694717458
32.5238433549633
31.5071054792136
126.710613680876
118.336476192301
31.329743322887
31.6671340444463
119.701357403734
126.781244368326
32.7306254993551
27.1000434494457
112.599327367193
124.721114367178
29.7248208689553
24.5250239745046
91.446723843132
59.3556241715573
18.9836278371387
17.5419548870909
61.4694263307528
56.4771566269921
14.027806270228
12.2401756151402
49.6530175776848
47.045748046408
10.780411300557
9.64834539560502
44.7191849725035
52.5065287532831
10.9563532658271
10.3241648601496
50.1600376457734
48.3181964887364
10.1007338268453
10.0776182849054
47.4449277016614
9.66006220736439
9.0197286700416
9.10049870748751
5.849794861438
2.51261338122834
2.38487670967251
6.84115149020419
10.8949222823052
41.3627057794355
50.8163446713532
11.8725247810381
11.3797081977073
48.5650234429172
46.2323939577686
10.7817100859335
11.1630362284647
46.0220845184885
38.7593807116943
9.33241002221118
12.181771401211
44.3205334663008
42.7767681992328
11.1144909022751
10.4766094324293
43.0400751959811
44.1916101319811
10.255139607196
7.49832632213422
39.0507047518824
37.806219002178
7.8503569071525
8.45725711836523
37.6616949276352
44.6000886608682
10.4986418677787
10.0811982671911
44.2600934344681
44.7383640745144
9.87780690664141
9.74557815150156
4.63100604854399
8.3652792258296
34.8437210704544
34.3530241621955
9.44399579617607
8.72304348365079
9.15150286573639
5.52567825698242
9.00943467533802
36.0202177176035
37.5808340401333
10.5330781380856
9.13064762337994
9.90423764904065
11.875976259992
48.1492223909371
40.5249505056934
10.3092978957789
13.4662870747853
46.9220252566579
51.9938112577771
16.2597084133861
17.2937004288232
46.7463515370624
47.1011365888567
18.5187386968381
19.1731291781005
46.7197564378057
46.7825498813383
19.8007599202998
21.9246162215576
49.1007654520576
53.1106039796508
21.9079742955073
23.6819310460968
61.9195998522926
76.5007413022067
25.7207362640639
28.9937630870881
97.1145712626356
102.126158646382
29.9440176383983
28.9234430645122
93.3380723383774
104.491812707738
121.801740168696
37.5825070103622
34.0873140333306
21.3435399655065
21.3943577217869
15.875246046323
14.7355920984788
10.0160180787736
9.65594646996803
8.8003408803809
9.43244453646592
7.9267288717264
7.36212042590315
5.62657135323766
6.01430175285535
4.41870408262893
4.23587163470486
4.22697284416709
4.39612344495637
4.32728626502043
4.15156040861885
3.99973460405964
4.18322344474666
4.12039789720827
3.90663890762455
4.09675974110663
4.31911591392804
4.50542219728487
4.25147161151581
4.20325085774654
4.44906629655175
4.38549353857643
4.12303056790552
3.95138844254922
4.18399509920276
3.83348438518563
3.62913644810348
3.24048020312153
3.4141118669154
2.90005101215234
2.75916831724109
2.43909023010272
2.55123153473682
2.25363313508699
2.16871627081174
2.01534943257477
2.11916899638353
1.91776270364544
1.8353533901264
1.72875477464724
1.81537849800628
1.73009627947936
1.66615521033413
1.63013728312098
1.69794778063802
1.70432977035289
1.64480094193148
1.62443905141715
1.69178421413696
1.6733601158847
1.60428440674801
1.60884838666615
1.66732420155437
1.89637658459776
1.81065966018433
1.86053815613399
1.95328448624108
1.99626768838204
1.89116972141539
1.90126153986269
1.99386207070263
2.81899170511358
2.63455733443985
2.92200386221708
3.10678230979707
3.16874711359537
2.98338613761872
3.44620478089914
3.56330613594499
3.64661732245507
3.52176283981502
3.95763430059915
3.72154399650117
3.80139188223122
4.05195212869883
6.49211330153409
6.09368637010083
6.0200100991349
6.44450333576031
6.69654408682809
6.29751426935381
6.20936805720724
6.64078673488776
6.8779406233111
6.47564210292157
6.36538754491096
6.81852688769395
7.75738247109956
7.9979542581202
10.8376587126025
11.1301609609237
16.4002156314792
15.6957537463066
26.1049162709814
28.9135266678671
136.449348242132
108.017039639549
114.315676531283
23.4685631783138
25.0914086913943
133.321954539861
130.527174638221
22.7520861527155
27.9463565377359
129.287443879667
162.693417925787
34.9685617168832
36.9448939101702
153.016526445513
121.523699188803
33.1597811248773
33.9203228325086
129.296430079344
142.92866336518
36.810472557238
37.2593260670217
139.434087916629
163.318528960116
47.5855215769052
32.719328423548
147.49173577709
147.130213134406
35.7865781162187
36.2281782149793
114.604077383444
97.5797728902355
27.2991119416245
26.0297016205582
82.117204318842
60.1829223839989
22.5994274756065
20.25850306958
64.2803154922519
59.4547141890015
16.2636725522491
13.9920028113419
52.6179121937345
61.9215549364025
15.1575160359125
13.3620346532393
58.3547766570359
55.2487141468875
11.9515868829856
12.2049102501678
52.0980218923713
54.621576723735
12.9339030263488
11.206213430722
41.1548901843318
43.7579283667257
13.0727453391174