/*--------------------------------*- C++ -*----------------------------------*\
| =========                 |                                                 |
| \\      /  F ield         | OpenFOAM: The Open Source CFD Toolbox           |
|  \\    /   O peration     | Version:  2312                                  |
|   \\  /    A nd           | Website:  www.openfoam.com                      |
|    \\/     M anipulation  |                                                 |
\*---------------------------------------------------------------------------*/
FoamFile
{
    version     2.0;
    format      ascii;
    arch        "LSB;label=32;scalar=64";
    class       volScalarField;
    location    "1900";
    object      p;
}
// * * * * * * * * * * * * * * * * * * * * * * * * * * * * * * * * * * * * * //

dimensions      [0 2 -2 0 0 0 0];

internalField   nonuniform List<scalar> 
209453
(
83646.4098972146
83661.5713593899
83683.2588910298
83660.3949156795
83645.9265208375
83634.4452593733
83624.5087625512
83612.2356535741
83617.0873618573
83625.1517595002
83624.6078742603
83621.8923629778
83621.8971279727
83632.5828799304
83632.1093850994
83640.7653005711
83644.6127182977
83642.5304739039
83642.04571892
83654.8954244655
83663.2715616454
83669.2889856023
83654.8128152432
83645.3229083432
83645.5624940707
83655.5757592166
83655.1522834393
83658.5637003694
83665.1665323269
83663.5358303616
83658.746026315
83662.1541448231
83663.4352815181
83662.4694325144
83661.2605866353
83659.6304807811
83665.2931676202
83672.2152574523
83659.7622469696
83659.0837370961
83672.7447522313
83659.8784770739
83654.667168284
83659.9832510884
83679.2764805959
83621.0349656637
83628.6549501657
83603.7506260538
83575.8674861319
83583.3522075557
83599.7422521259
83596.5495771472
83572.2358290321
83661.8460343329
83670.2106458541
83630.0015842763
83620.1316538651
83614.1279422836
83614.3631163637
83614.8736294238
83614.5323238872
83613.5260663219
83614.908891737
83609.5355392702
83609.4496605536
83603.5295445306
83601.956616463
83584.2407840619
83599.660263124
83617.0822025255
83613.0949408058
83631.8295899625
83668.7687051359
83663.370521112
83643.2271884509
83622.3226066798
83626.1871736454
83602.5274376709
83591.2430613852
83598.4360417134
83604.9254408227
83609.3270689513
83608.2736729319
83609.033047274
83611.0396072724
83611.7891318404
83610.3288989545
83612.8867002527
83613.4594674554
83615.8807852655
83615.9523177205
83612.7326980046
83613.225755046
83616.0589238929
83616.3423555826
83625.6097874434
83624.5847959076
83634.6035601317
83634.1824368104
83645.1489758698
83646.166129678
83656.9357482996
83656.0473351329
83668.1240937853
83668.4280381126
83664.7788601515
83664.6153015184
83676.974789299
83677.1260054742
83671.0379262253
83670.3900180115
83668.4596004061
83670.8402687536
83671.4281775017
83668.9827151628
83657.7688853757
83667.4668415883
83668.7016767843
83672.7389818936
83690.3398046587
83675.8242396536
83675.6386911121
83684.4435321613
83682.6400830952
83678.7704145332
83679.0188012205
83680.4953890096
83682.9860321269
83682.7355853277
83680.9255856749
83680.747077033
83679.2084014181
83679.2495110474
83676.7468820522
83674.9328171173
83672.7283514106
83672.2867474527
83660.767904981
83661.0429276194
83654.0922683606
83652.9288603711
83647.6191196279
83648.5918690745
83646.849453738
83646.0339243689
83648.4548287543
83655.8555045301
83657.6704029013
83636.0959478211
83632.525732528
83642.5967179174
83607.9725565278
83611.9509146769
83604.5789723614
83601.7671990386
83590.5928142689
83599.7232728326
83610.4621285576
83619.0009805182
83639.1239505738
83613.4413837842
83605.8714738108
83623.85865725
83610.7237029363
83607.1021053265
83608.5660431809
83609.7166395653
83613.037720049
83610.9973942982
83604.8991028843
83602.8925379725
83605.1760855309
83604.6392784477
83604.7545571727
83603.1181172178
83604.2528726737
83604.2777859297
83606.7096373899
83615.4331837929
83601.1842073501
83599.3933856176
83609.7494181846
83603.9271195316
83601.5924357753
83602.0531575865
83602.7071017572
83604.4399239095
83604.1334712241
83606.7504788181
83606.8820537794
83609.1142914555
83609.1675023156
83609.7873460771
83609.7703160728
83610.229306459
83610.1252625059
83607.1313166773
83607.3447603817
83607.5085728698
83607.3036044329
83607.6518532857
83607.8452690588
83608.5698431534
83608.4541234528
83609.5624065964
83609.8535409203
83609.9618604568
83609.7539400122
83615.6454702645
83615.5310056142
83625.000501933
83625.7392061429
83632.8019283288
83633.0878115928
83633.8974461184
83633.5331990389
83643.567627031
83644.1685956935
83656.1559013142
83655.5205809109
83670.0923926949
83670.3397038242
83687.9479411386
83687.6085704791
83681.7907157796
83682.4847819422
83693.7339898131
83692.2907660494
83689.7294361871
83690.8921613125
83685.4332282163
83685.6620575598
83684.1526864905
83683.4379786987
83686.6682099536
83686.5479217741
83693.9198119946
83694.1000604
83689.6884559155
83688.7064231464
83685.7082613505
83688.3402597696
83686.2774352331
83679.5025061095
83691.4316876596
83693.0335171926
83691.120490785
83691.6762829375
83690.9854762571
83686.0063950089
83670.524203697
83669.5265610709
83662.6085930967
83662.7539607782
83654.5122538335
83655.1827167898
83647.6346153187
83646.2639298672
83642.2801429726
83643.6151616426
83639.6687399108
83639.4007844335
83637.7968881662
83638.2470040533
83636.6549980347
83633.5688589818
83627.0697330672
83629.0153437881
83619.7615358536
83620.3637320784
83608.3975661821
83599.270714108
83603.9194393185
83606.4620445863
83604.7807574985
83603.241160631
83604.6013030772
83604.0020797215
83603.0484219442
83602.8748883136
83601.9021770316
83601.3320421051
83598.179688519
83600.0078073929
83602.2165520355
83594.1727397499
83594.1050378923
83598.092104105
83597.4443774659
83596.8908723607
83599.4234707178
83599.393326658
83601.6787499468
83601.6767023509
83604.0910119947
83603.9863030866
83606.0138233774
83606.2621854465
83603.4266651896
83603.2712443701
83604.5075658607
83604.7324830517
83604.912462039
83604.6617979503
83604.9744713759
83605.2508324616
83607.0769970716
83606.7911327141
83612.0396799778
83611.9294970937
83621.481925191
83622.3516136698
83629.0589238391
83629.3173517971
83631.7985535943
83631.5366845629
83642.2399109554
83642.7754075177
83643.7562714257
83643.2239386319
83656.2833236811
83656.9736746621
83673.4958051566
83673.262012262
83694.4690734753
83694.5494278025
83712.6707527078
83711.7969301523
83707.2031699471
83708.1315423777
83702.1899576362
83701.3663968976
83697.5692561399
83698.4434962831
83709.3216088732
83709.2070619929
83703.9426471601
83704.0571090135
83699.5051186893
83698.8929657087
83695.2698158901
83695.9707288368
83704.8374632961
83704.2202927322
83701.4001858339
83701.956226139
83698.1358170793
83695.8137784942
83693.5015475748
83697.0338855794
83705.0580666857
83705.5290649816
83704.7162584487
83704.9648810236
83695.5580510701
83700.3144540988
83704.2795782334
83705.003834881
83716.5855974009
83710.4965022935
83708.4925818036
83709.085691042
83712.3364805707
83711.0072189494
83715.1699400028
83714.7911623678
83707.6077012619
83710.6210744758
83708.173523974
83701.0022608985
83703.3560195731
83708.4134395359
83706.2821317797
83704.6616456808
83701.9780042972
83698.9450958396
83702.1357446667
83691.2152141489
83707.8192275817
83701.5099992857
83686.1920275863
83676.1042162394
83668.8451826731
83674.9344656494
83657.7370394396
83655.3152665335
83655.3256827037
83655.174561317
83650.7188321127
83651.2066935796
83639.1129783238
83638.4889058561
83637.152050545
83638.8814628663
83637.543135346
83635.7285207711
83633.7894598663
83633.0076533463
83637.0308962444
83631.3637183618
83631.5125706605
83636.0416134929
83628.1224623629
83627.3417640666
83621.1699872247
83605.4424540804
83611.8811064812
83614.8019852644
83610.3005090346
83599.6797664072
83603.9881299218
83606.4047949392
83603.9846510442
83605.1153728543
83600.2240928633
83599.7853356482
83602.0789267533
83603.0230455269
83599.13247636
83599.0736923431
83598.9658733146
83598.6540435381
83596.6229406891
83596.8246299256
83594.4114720181
83590.7655587167
83594.1991793995
83594.7598922995
83596.848096302
83596.7672368787
83598.7696842012
83598.8365734217
83601.120863227
83601.143281786
83597.902597497
83598.3317404828
83601.2936389211
83600.9900101781
83602.3137780855
83602.4519807876
83602.7731320523
83602.7127719809
83603.3495138077
83602.8870275116
83601.7552922514
83602.9355852366
83597.4812673365
83597.9066224791
83601.2326718205
83600.8076919121
83600.9984315289
83601.6750454786
83605.3842590321
83605.4884133351
83615.7059526419
83615.220930901
83621.0351995498
83620.6349264872
83625.8238784872
83626.0667488663
83636.0722427015
83635.3673118072
83639.4014388028
83639.9929248684
83654.1717300641
83653.4752640392
83656.0541703351
83656.7552191276
83674.9109167424
83674.7231257554
83699.1599452301
83699.0063582604
83723.3251216549
83722.7568674032
83718.2496098249
83719.1305527599
83736.5920745209
83736.5796015306
83729.2768313723
83729.2874472916
83721.9678150245
83721.8786513856
83715.331254111
83715.394532105
83728.5909137396
83728.9775274612
83721.280544385
83720.8615902476
83715.5615095292
83715.7342945753
83709.5173956563
83709.6521311718
83720.1243133649
83720.1424319078
83713.996812813
83714.1670787779
83709.8680187939
83709.8753275529
83710.8517623554
83707.1665406935
83698.5067969706
83712.6954493356
83704.9404071989
83690.3759917965
83678.021208414
83662.1984738369
83637.7118571847
83608.3318117066
83581.5393886807
83552.2041056686
83534.886089337
83536.5734557335
83567.0540216981
83568.2149123432
83584.8148552661
83582.0475350678
83594.3900591748
83594.7554578112
83589.0758854553
83587.3462418898
83594.755826305
83595.5491728692
83592.0539646771
83591.2760858589
83597.0744509818
83596.5528402324
83594.7559286014
83595.6208015413
83595.632306588
83595.1926920232
83591.3301575221
83592.1996923617
83591.2068368399
83585.8342757402
83587.9760021638
83591.6247314668
83592.6431773028
83593.6700512812
83595.3630516366
83586.149980014
83592.1440824642
83593.4222254216
83596.0999832852
83595.8804965866
83594.5022326956
83594.6967505626
83594.7559171837
83594.5235810973
83595.474064101
83595.1361246836
83594.5504422935
83593.6810219539
83592.4174074346
83589.541865402
83592.8072859542
83591.5974368184
83590.0114276417
83588.5181324644
83600.9669774525
83595.643448138
83593.067108557
83596.4853023573
83597.6244419975
83599.7559616856
83597.6952659206
83601.7002069528
83602.3598013892
83613.2887949093
83644.9386831173
83642.2354338094
83605.4985380676
83582.6406435375
83556.5185387442
83568.9659171894
83586.3137292625
83590.3311825623
83585.4965077456
83602.8614319112
83599.0933731096
83607.163088822
83610.8786768828
83641.1180110247
83621.9458260366
83612.6469970773
83646.6795299609
83589.3831124561
83592.3745310294
83584.7151613621
83578.6812322011
83570.0306160617
83585.4010335641
83584.3330664108
83559.7806308125
83573.1248000894
83585.8801720367
83593.6151590368
83589.9455748532
83594.8124681469
83596.5020117931
83597.7292611628
83595.3346586455
83599.1464751707
83600.1437292684
83599.4243271875
83599.1445508087
83595.8969468525
83597.0592718938
83595.2659448561
83594.3993396092
83571.4955543591
83585.886696194
83593.3814912383
83603.041827044
83602.0640547957
83587.8380188193
83594.8663760793
83606.8639136401
83614.8502104764
83627.5326694096
83614.5819022418
83613.5932176787
83614.5411871098
83612.8904306792
83608.8560382559
83609.8583343046
83616.3675765762
83615.730652108
83623.1753230847
83624.5705981728
83629.4338540949
83628.3667241065
83639.0984469752
83640.1235500249
83649.4014324212
83648.7812159797
83666.562664012
83666.9058892208
83672.8456494528
83672.5303349964
83698.6334554731
83698.4973214097
83728.222427276
83727.952720514
83725.9080197956
83726.3607640775
83748.8960330267
83749.3631739859
83744.0859909599
83743.8203589878
83764.3649251369
83765.2021085909
83755.4284279575
83754.5953377679
83745.857746225
83746.4590863387
83736.9197809812
83736.3748060229
83745.1373274722
83746.2231004292
83751.5625342978
83751.7129753499
83746.5319349123
83746.4147638693
83741.2498388528
83741.423852823
83736.7382987882
83736.5617051917
83733.1182835655
83733.2395333103
83729.9847223545
83729.8862863778
83727.0978942567
83727.2157093772
83723.0115450699
83723.1835109395
83723.0532215204
83722.466349004
83726.3893795384
83727.0877259695
83728.9778733241
83727.9948557634
83731.6452869136
83732.6630159231
83736.0646396852
83734.9510299037
83741.8262995281
83742.6885744952
83747.0967624879
83745.2259397484
83760.6880063089
83760.4730092137
83757.4303834254
83755.892527574
83754.4895319119
83751.641432958
83744.2476931129
83739.8276441725
83733.2787515215
83718.5368427158
83697.1135524579
83670.04086747
83632.9758458724
83590.7495846537
83560.7748137394
83543.8885751223
83527.3987687544
83511.9773518971
83508.8170597339
83550.9202601235
83554.1416050045
83576.6857105352
83574.0105080353
83567.1259051976
83568.8819964904
83583.8719183288
83582.2220220684
83579.439671281
83580.127519
83589.4576616801
83589.5107090177
83588.0844566936
83588.439066949
83588.6883075135
83586.9978319579
83585.4150574976
83589.2927400502
83591.6648544618
83589.1575427836
83586.6137739294
83589.0438343591
83591.1553898093
83591.8490950359
83585.3932284339
83592.8272019067
83603.4381393071
83632.8211588847
83583.9527751997
83596.4921478175
83599.7124723699
83574.5037618003
83650.7474232764
83627.1517232377
83625.8157788535
83646.3841087695
83633.7719848441
83628.5559736883
83621.8056632566
83621.3180564215
83616.820626568
83617.9074260772
83622.111469186
83621.0453445234
83631.5979924841
83632.534210174
83639.8350928585
83639.1053717856
83652.8476910876
83653.5355488286
83671.7486283852
83671.9150388126
83691.1787048974
83690.9271084195
83724.9152661993
83725.4030321589
83727.5280520574
83727.4773347131
83753.5285296421
83754.7084390789
83754.0340186602
83753.1765138888
83778.2164891357
83779.6092169182
83772.8682946357
83771.7347160477
83787.1553641896
83788.3848790659
83796.5250004352
83796.7606927294
83791.0636816752
83790.86467917
83784.4969515301
83784.7789904718
83778.4272074868
83778.1154856299
83774.0133468685
83774.2156134659
83768.128610975
83767.9869749543
83761.6935778348
83761.9214363926
83756.0080332735
83755.8059352324
83764.7751245272
83764.9949594062
83760.1341211628
83759.9639858759
83753.909463282
83754.1201299069
83749.348342813
83749.142590485
83743.6715043452
83743.9802814493
83739.9741024961
83739.7264856678
83735.2516611029
83735.5478754672
83731.9787170624
83731.8794939574
83729.3357318505
83729.1429735857
83732.6825151413
83732.8627480419
83728.880058723
83728.7937972472
83722.5287658167
83722.6789487549
83719.9155613994
83720.5921467828
83718.9873189946
83718.0026997523
83717.4264679661
83717.8116178515
83716.1553864151
83719.0694253085
83724.7739299495
83722.7065289241
83716.5938589003
83716.4923615562
83699.7971382808
83707.0810878846
83719.5621593196
83720.0147631735
83716.4619905269
83714.7689732904
83703.1309709619
83706.2413644034
83698.1072699405
83694.3386929203
83680.6786819994
83686.6981966494
83671.4897047222
83668.4819188371
83652.1182404936
83650.423381431
83634.9387928239
83633.7426829174
83637.9711815561
83636.694005977
83639.3276312735
83639.4382533015
83621.9419158913
83621.9144463492
83624.3423327486
83624.4415567888
83624.6325473764
83624.674456941
83626.2696667784
83625.9526834253
83620.4505464557
83622.7311992492
83634.7124383611
83627.9219357284
83622.6009249715
83632.5235125727
83616.8268802365
83613.9422842784
83622.9758214306
83624.4984243993
83619.8629533353
83613.8255184431
83609.3069710859
83620.4415306107
83589.8272032101
83594.8971640765
83603.5825174074
83606.8002106701
83601.2908543476
83595.5338084635
83589.6583417644
83584.5538292871
83579.0148669993
83579.4103542848
83578.6703793906
83582.3449323096
83584.5928729439
83575.5491976494
83587.1856511124
83585.2321767142
83590.3119816373
83595.810745602
83594.7993122004
83594.9885311702
83599.9687259578
83596.7480180122
83612.2762856018
83609.6143803104
83616.2015123133
83629.9955583933
83631.5718106785
83617.2688805503
83617.3398258319
83618.3719355643
83621.928988345
83623.2371618395
83611.4200498785
83612.4698916069
83612.3420825857
83609.6299373653
83621.7563325787
83623.3331105407
83622.5618024657
83621.3656586386
83648.3232230358
83648.3300648311
83666.7673013576
83667.2760557184
83683.8414831023
83682.8903342593
83702.6328524084
83703.4435343905
83715.076227211
83714.2823662687
83738.4452099439
83740.4063227285
83751.1745228489
83749.7015071863
83775.2078966095
83777.0223136668
83781.3881676004
83779.671260856
83800.6163081268
83802.0772782815
83810.8058528251
83810.9475803601
83808.7273838204
83808.4991280506
83804.1351318888
83804.4524834153
83799.6798156371
83799.2958083637
83811.4476169909
83811.4090244373
83807.7497975059
83807.8387653603
83801.2275302523
83801.2029201393
83795.7826109285
83795.7284590472
83788.755154535
83788.9136929742
83783.9869561685
83783.8865148099
83776.9403371034
83777.059836661
83771.5460550153
83771.3557984289
83779.576777005
83779.6915287461
83773.044802384
83772.7731062461
83767.5260053706
83767.7213241277
83761.5513650394
83761.2272946655
83756.0565198934
83756.2675112272
83750.650920109
83750.310691791
83745.7192315492
83746.0378578861
83741.319571287
83740.9431244183
83736.841680297
83736.8398052063
83741.8045817849
83741.7628528486
83738.5714889914
83738.4321657141
83742.5344930423
83742.6292940362
83738.8858178467
83738.9606768959
83733.1887903262
83732.6875096141
83728.2819763271
83729.5970705136
83728.5670732094
83727.7578254179
83727.6915616673
83727.2778968279
83734.0243934848
83732.9095630286
83734.156392511
83735.6398889475
83738.1115688361
83736.9711604074
83744.6066624389
83745.6132857671
83742.1044065325
83740.048009787
83738.5420989828
83740.4650835471
83735.6618486922
83735.3062626885
83729.1609946135
83728.8637194617
83724.1510509108
83724.3465234021
83732.852266802
83731.3843479961
83728.7089696811
83733.4854695144
83726.7289815994
83722.4355589435
83711.8273180767
83715.2556092003
83701.9484534421
83697.7490916324
83684.4052342468
83691.0144512411
83675.9244221932
83669.7896941017
83656.9312388019
83666.7545404783
83651.2534675506
83652.6009698807
83618.1991264079
83618.9761452659
83587.6592518924
83586.5289124414
83605.7772487145
83606.6263847771
83616.110903173
83616.2517034101
83601.5606127252
83601.3426969792
83607.3521662225
83609.1418285462
83613.9652660148
83613.4591322565
83615.276340766
83615.8571073929
83605.3196855213
83600.9453287981
83618.4421483728
83614.5000783485
83607.0149078428
83617.4007236772
83580.4157118137
83594.6287395093
83580.3063905306
83574.355611111
83560.9847077736
83557.9052108001
83538.6673516441
83545.0500280383
83495.8800551308
83499.1741074139
83464.5656765164
83462.9284322162
83438.4475419315
83437.896944941
83406.3648871488
83412.5259923834
83487.7943013708
83488.6175120082
83540.9680916966
83538.274024969
83534.7829124361
83533.3469659423
83563.361930004
83562.9163691057
83554.3217617691
83559.6547631965
83570.954983991
83558.9928020523
83579.552439581
83580.29668587
83571.847881762
83553.2311904019
83571.1071865238
83571.3462659622
83574.4738759512
83578.4426824671
83588.8829656035
83583.6448192639
83590.6188088385
83595.9189842244
83598.2139750173
83595.5577287048
83601.4538336847
83609.4089503396
83613.4906838898
83604.8236979451
83595.677098642
83593.0719418522
83600.2260374249
83603.5703524554
83606.7361012981
83603.9125260991
83595.0624342588
83597.5156202941
83592.9548734432
83588.5668233217
83582.2273335332
83587.4213579586
83579.2836664563
83577.0354898179
83583.3881314738
83585.0059390325
83586.9866523517
83585.5530769784
83589.8662910837
83590.6539451956
83600.6859483591
83599.2868582365
83605.214855805
83606.2387539927
83627.5959910975
83627.4593093276
83645.1541705946
83645.0095097822
83646.3175918466
83646.9985956839
83673.1552400321
83672.2959485772
83698.3513732218
83700.3715029654
83722.6676706221
83720.6289595304
83739.6253613539
83741.5733795872
83764.7692166469
83762.9483541481
83784.677533098
83785.8616035981
83790.965227659
83790.8854335581
83800.8042459282
83800.7677338835
83805.5160346632
83805.7433615732
83808.3498325964
83808.0911786021
83820.1272476873
83819.6237079969
83821.7258176876
83822.1609298211
83819.6613968248
83819.4150908772
83816.6175623813
83816.8356926654
83826.2087670905
83825.6099335073
83820.4748021887
83820.822956859
83816.8861240086
83816.6031228441
83810.2403008289
83810.3953425809
83804.7067467856
83804.6485800507
83797.7182260007
83797.6646468851
83792.3813771319
83792.4565462453
83785.613226752
83785.4361850518
83793.0014902333
83792.9911711078
83786.8925136823
83786.904643333
83780.2740229783
83780.3281827985
83774.640513623
83774.6287464589
83768.3483976919
83768.4747780575
83762.6871469559
83762.6352797402
83756.7561065036
83756.9047848834
83751.6486861076
83751.469448243
83746.1949139455
83746.5773880238
83752.0905410411
83751.8151844382
83747.0286650743
83746.9725422357
83752.3569101787
83752.3330919747
83748.8887727317
83748.715968532
83752.9694236517
83753.0647766105
83749.2484562203
83749.303008545
83743.2484607013
83742.7247431727
83751.1390542722
83751.6971463113
83758.9339934683
83758.4598604941
83751.3034883354
83752.2597932428
83748.090528314
83745.7886219495
83744.1957991291
83746.4555093645
83741.4230620906
83740.4472753565
83735.8584010576
83735.6608051939
83730.1013911567
83730.7890927321
83720.0487158784
83720.2500059256
83714.4600079398
83718.9901937774
83714.4106688655
83707.4081598694
83709.1566096938
83708.2945703355
83696.9580266861
83695.9622499701
83681.6891291196
83690.7974821451
83668.7859038583
83669.6934667981
83670.485007764
83669.4011560291
83652.3917972928
83662.4780340018
83637.9855386578
83634.8311518514
83595.5954601642
83596.5255725648
83557.6244195458
83559.3830221799
83533.7858252375
83531.1303242963
83562.9484534823
83564.1051998436
83586.6151808873
83586.2830071663
83562.3367591012
83563.116289732
83584.5815550456
83582.9871352777
83593.0542370294
83587.6917591693
83603.245303074
83602.1659690074
83592.7517228286
83595.2020795983
83576.8680212654
83581.6057693366
83572.0213223226
83580.1743511472
83557.0934028919
83553.0448556604
83520.7818856762
83517.8625623282
83495.2789921221
83492.8094395245
83471.640745318
83475.9331942274
83420.7688983577
83422.9019077119
83379.2262437841
83380.3635379736
83354.7978914122
83345.5492596316
83313.590030338
83330.6799389295
83323.685121167
83304.7444534134
83365.8453452982
83362.6513543494
83464.6711653142
83466.088982848
83470.0168615953
83464.3374036241
83456.1623455056
83460.561654745
83503.3983870634
83505.5431203297
83546.6511392379
83536.1714426135
83544.0386592735
83542.1331378285
83558.9020224228
83550.5256710144
83558.958302193
83558.6356792457
83557.2676413292
83552.5290179346
83541.655656191
83548.1894562412
83545.8838842918
83547.7095271211
83559.4160156861
83558.9972538602
83573.9721014151
83571.1716958016
83577.854882887
83579.2640865706
83591.2152122823
83587.5881572271
83583.9333100984
83570.1767000614
83557.8673516674
83571.7540069117
83573.163618213
83573.3198357966
83562.9368450257
83561.8051888625
83564.9284777217
83564.9129876352
83567.708977896
83568.1572356168
83570.9707291213
83569.9253705969
83581.2934806037
83582.012890492
83597.4127396975
83597.149285818
83620.8323240474
83620.7637321369
83612.5220937361
83612.6424482297
83644.6852075017
83644.2756330571
83676.3544037886
83677.3760810836
83713.1159517278
83711.5725407793
83726.1905014412
83726.0131799877
83722.2691129034
83722.0874446878
83743.7476587963
83744.2361253142
83760.5178651302
83760.3096917435
83777.2959314192
83777.5332085792
83782.7647572365
83781.1693505231
83795.7105969691
83796.8870709556
83809.7022642571
83808.5917188111
83815.6428968487
83816.2841741592
83822.4416214797
83820.5840332246
83826.5968601803
83828.032269965
83830.9378890183
83829.8707219529
83828.2474937624
83829.021771819
83833.4684441032
83832.3595745107
83830.4179976194
83831.2869445606
83826.7057256906
83826.115088528
83822.5309738417
83823.0159133766
83817.0195717496
83816.7205899158
83811.3786796612
83811.6288362133
83805.0877818473
83804.9628398166
83799.5773148854
83799.6727491107
83805.6790187132
83805.5060680923
83799.3618687853
83799.4421979167
83793.5695989989
83793.4985468493
83787.2063864019
83787.214217546
83781.2950402294
83781.3074813672
83775.0776627881
83775.0218416236
83769.0456911183
83769.1099337641
83763.1873299509
83763.0572835269
83757.4300175873
83757.5484307487
83763.312433176
83763.1700978312
83757.2539209828
83757.582637427
83763.0436843653
83762.8062832235
83757.7336044805
83757.647326991
83762.8805350908
83762.8738566
83759.1949616987
83758.9421886803
83762.8221833032
83762.9748090168
83758.677053173
83758.5301230514
83766.5978727553
83766.969153588
83773.7130616351
83773.1252311691
83764.7828355192
83764.3967377681
83756.524296855
83757.4946740845
83752.8012275638
83750.42845519
83748.6110759387
83750.9952980762
83745.6965932385
83744.2300250577
83738.6594900524
83739.1878407481
83733.3680704017
83733.3885451945
83725.8019176731
83724.5823527199
83715.866496099
83717.6499072664
83705.5750634793
83706.1213691482
83693.9699608238
83691.724026425
83696.258386287
83694.5409145199
83682.7865945166
83683.2388350176
83681.3847418687
83682.308431649
83679.4335223573
83678.5603722081
83680.4698536137
83677.925202341
83662.3599573097
83668.0026263597
83644.9461218913
83649.9178797873
83613.5201393979
83611.0232507255
83564.4114730147
83563.0702801945
83517.4023737229
83521.0315927814
83494.0146801075
83489.2707427786
83453.9255889299
83458.2723151223
83500.9341473994
83498.9609088884
83534.3510757873
83535.2978756842
83508.4809531236
83507.3804529864
83536.6104574629
83537.2198657438
83567.2707734221
83564.0961826392
83581.2120107677
83586.5167846979
83574.9371677699
83561.106113261
83532.2616896628
83488.3788770768
83443.0453072077
83390.9889713079
83347.0968016941
83323.7629072285
83321.8114884808
83305.4051264793
83303.1511968633
83359.7473984056
83357.591115301
83419.6528418615
83417.3167288899
83407.2328872784
83406.1430890326
83399.2691127302
83400.2265335557
83393.0537003286
83391.9838969083
83452.666801981
83454.5599293714
83502.9688803152
83503.4412975721
83542.4588985734
83537.0514430787
83536.4959411553
83537.4714838217
83506.4289817123
83503.8595647136
83457.2304847561
83456.2747657633
83453.8027455059
83455.575405437
83500.4383312585
83501.6433667495
83540.7372827159
83533.5037534181
83533.796947999
83535.3524687181
83510.3217387049
83516.4893040397
83536.6124273618
83537.4686217587
83505.6073188783
83466.3434626112
83468.0473294016
83429.4630265826
83435.8041096337
83370.2836373325
83373.0998055529
83415.920759023
83353.2648544019
83347.1483647608
83347.6010432686
83332.8558617429
83331.1515058727
83315.1278937344
83317.5275764609
83307.5464849436
83306.4710552667
83315.614384332
83316.0100282448
83313.548579498
83310.5866961081
83309.5802453773
83315.3857873493
83310.5724204341
83307.4771756856
83306.8603059587
83312.6698285267
83287.1677458734
83296.0139394611
83296.3724014091
83283.9388086352
83294.0332068254
83298.7384807084
83304.5044359001
83303.5630336975
83311.8227937901
83311.9451298838
83324.4042425914
83324.5147164277
83328.4598381928
83332.6738977047
83334.0021035172
83330.1261549974
83332.8041275308
83334.6818502428
83364.7110112363
83365.4178931955
83374.3036297323
83373.8918475368
83385.2453792892
83385.4301543294
83400.2990041687
83399.7582480062
83415.724354744
83416.4946251271
83433.1958296319
83432.1643384078
83447.6225721699
83448.8419083604
83462.8229702942
83461.5202135111
83472.6507536032
83473.8219766462
83483.2992299562
83482.604961009
83491.4827274805
83491.2774037908
83504.3869113607
83505.4023872677
83526.7023523417
83524.7124960301
83564.1967266524
83566.3787415954
83625.7504981618
83624.8969403062
83694.9888121929
83694.3636706506
83752.6933895792
83754.3618382029
83787.280137024
83785.4707857224
83801.3820770793
83802.9231920934
83810.2670073954
83808.7808419365
83813.88226371
83815.4093797719
83817.9613439769
83816.5931209612
83818.9432289087
83820.1216751406
83819.9236186151
83818.9676059897
83818.1989355045
83819.0056089783
83816.2127336106
83815.6793026112
83812.847347382
83813.2169332967
83808.817035
83808.5141606601
83803.8687627957
83804.086961136
83798.6160392741
83798.5269189179
83792.9636217083
83793.0134061016
83786.9978750186
83786.974118997
83780.9443460587
83780.907744807
83774.7809001078
83774.8636070358
83768.9065980193
83768.8287615682
83774.2148430255
83774.2794404458
83768.3084017276
83768.0347112481
83773.2554111853
83773.4356494616
83767.8549980827
83767.9795273898
83772.7346485184
83772.6884390954
83768.3994105824
83768.7115707007
83771.9328602961
83771.7245342986
83776.6639620096
83777.003170217
83779.4037750998
83779.1477033305
83783.1045326481
83783.4469021344
83784.6634670779
83784.3568178526
83777.4732073614
83778.3394570299
83768.462676594
83768.6846893117
83761.008419131
83760.1701689074
83753.6604032756
83755.5118193204
83753.0554040879
83751.5627178199
83747.4607652399
83748.6056430199
83741.7354590956
83741.3516477995
83735.31652736
83735.7002950267
83726.5724914667
83726.9045510098
83715.9313638146
83715.7882498684
83705.9921967442
83704.8939512899
83692.1508168497
83693.2792654657
83691.7152318098
83691.6711956743
83687.7512165193
83686.7920074878
83670.0947868438
83672.0225660166
83665.1883581301
83661.4832650753
83646.2388709587
83649.7988874992
83646.7882888716
83647.5594966352
83626.2538107783
83623.0428908085
83594.661395062
83601.1480442433
83560.7463114851
83554.7504490923
83517.7892169222
83510.7515763234
83460.2927626433
83466.7525509082
83443.1177326055
83435.4547517853
83399.5685034439
83407.144236518
83381.3850216238
83375.8184570674
83426.4375787836
83430.0628006768
83471.6553390963
83469.6775029868
83452.3779694083
83451.0498494752
83417.4530011344
83412.1323509416
83387.0915493389
83393.3672897904
83329.7520041377
83326.7119206157
83291.2479656957