/*--------------------------------*- C++ -*----------------------------------*\
| =========                 |                                                 |
| \\      /  F ield         | OpenFOAM: The Open Source CFD Toolbox           |
|  \\    /   O peration     | Version:  2312                                  |
|   \\  /    A nd           | Website:  www.openfoam.com                      |
|    \\/     M anipulation  |                                                 |
\*---------------------------------------------------------------------------*/
FoamFile
{
    version     2.0;
    format      ascii;
    arch        "LSB;label=32;scalar=64";
    class       volScalarField;
    location    "1600";
    object      k;
}
// * * * * * * * * * * * * * * * * * * * * * * * * * * * * * * * * * * * * * //

dimensions      [0 2 -2 0 0 0 0];

internalField   nonuniform List<scalar> 
209453
(
0.0158049501299532
0.016827268951063
0.0223832620333318
0.0212621960386277
0.0165574701759572
0.0164655403959773
0.0208300462236462
0.020178947279979
0.0197707426935912
0.0157907104181227
0.0160114423304525
0.0155311729403757
0.0153833672008689
0.0154604108819783
0.0155983074642334
0.0161723278597005
0.0211263157159409
0.0208377910538439
0.015886194653346
0.0159752210940078
0.0222452657967467
0.0223611924935418
0.0162944832510589
0.0156833821868843
0.0155351580511534
0.0156201745677565
0.0157722894230798
0.0165429589780128
0.0236473727482904
0.0235496278458031
0.0161774856181193
0.0167396247362077
0.024721685423193
0.024920884582994
0.0171704399659601
0.0173116385067996
0.0253214102371198
0.0238008167976477
0.0169743565841604
0.0171467259774409
0.0234350686973707
0.0226895215342359
0.0171522139410775
0.0169903918551732
0.0210300620363984
0.0196511392255838
0.016579526393899
0.0160329680860217
0.0186255579639771
0.0171719345042252
0.015553071015024
0.015264466309959
0.0163347288161047
0.0157512202491919
0.0153141786981617
0.0150262950831772
0.0150622863951759
0.0150494568185525
0.015014829725057
0.0150111379795634
0.015008163995643
0.015023191793589
0.0150384305335044
0.0150745642418743
0.0150476711413616
0.0152259561388918
0.0163415776593933
0.0163916107637724
0.0152584630461315
0.0150607527234452
0.015087217127612
0.0156036963801836
0.0157018228320454
0.015272656477925
0.01529049356282
0.0150252626915814
0.015026492797862
0.0155448800689468
0.0171624426428587
0.0169934092940961
0.015424345531881
0.0151092446890304
0.0151671092489713
0.0151829627637506
0.0151177673230169
0.015449161240824
0.0156440977251105
0.0156660650101183
0.0154657559617266
0.0153237781587831
0.0154462171582097
0.0152039122378358
0.0151313429500445
0.0150871924719264
0.0151274536124108
0.0152115761024756
0.0151446968771956
0.0152012461474092
0.0152674879860531
0.0153160381749196
0.0152607550256166
0.0153294972055234
0.0153916715708261
0.0155302348488662
0.0154188598726648
0.0157805626186645
0.0160061835894945
0.0163356420584483
0.0161722242255707
0.0173929271767265
0.0262361691886943
0.0263036794470688
0.0176863513752526
0.0178008949276525
0.0267315301418185
0.0258512000215661
0.0174973626188952
0.0177585047443318
0.0267372896945681
0.027619358908941
0.0177830669538952
0.0178461769319629
0.0273456074180761
0.0278076071090834
0.0177394832465379
0.0177967151632815
0.0280187853676651
0.0307070233807718
0.019322686118861
0.0188960289902074
0.0297801407978031
0.0290377662397447
0.01832956390722
0.0185410958438283
0.0307760941988835
0.0299250400456802
0.0178342214169004
0.0174072303783927
0.0269029917205578
0.024679833234523
0.0172493708826405
0.016804024787333
0.0238093647174957
0.0221857950223029
0.0166957401648718
0.016581717668987
0.0207671163192429
0.019544298466181
0.0163204049651847
0.0162472032406951
0.0194023669194074
0.0184879319891304
0.0160178582622905
0.0155545883253301
0.0172471457181628
0.0164286461763531
0.0152819461089226
0.0150548300887342
0.0150201065665003
0.0153218680074513
0.0158280099309885
0.0158364275376753
0.0152869895940229
0.015011628677254
0.0150342861655871
0.0150180232255836
0.0150078808934377
0.0150132674863181
0.0150342485981205
0.0150387090841476
0.0151489677003022
0.0150953309213921
0.015187101478046
0.0164385935759791
0.0164407600134981
0.0151168085703648
0.0150163926458322
0.0150045123061118
0.015288378296395
0.0158302095387461
0.0159096360138387
0.0153437157900769
0.0150013418200116
0.0150126246296069
0.0150085927715818
0.0150047262067932
0.0150025671932304
0.0150050061229875
0.0150085992337418
0.0150038021321136
0.0150053482111532
0.0150157751868632
0.0150105927934452
0.0150050326191052
0.0150033256972747
0.0150043967958496
0.0150016852030238
0.0150013766126763
0.0150032731829879
0.015004409658479
0.0150088155556319
0.015006136485443
0.0150074709088914
0.0150168344499213
0.0150631113469637
0.0150327256001214
0.0150198444517871
0.0150293590367103
0.0150757896896516
0.015056169042288
0.01508222527873
0.015099894949373
0.0151327462878191
0.015117905959352
0.0151572655212651
0.0151923966857789
0.015235413293645
0.0151998392827602
0.0152432135898908
0.0152812480154898
0.0153341948612177
0.0152910862254348
0.0153448657310999
0.0153874130157718
0.015668611977142
0.0155514321999926
0.0156320450832117
0.0157305564418157
0.0163821160036834
0.0162302718178881
0.0162311210983813
0.0163744218990355
0.0176264118160798
0.0177205493653723
0.0180761084565161
0.0177937353865484
0.017734257476828
0.0179624505654607
0.0192951616157874
0.0321956900817426
0.0312310269424395
0.018918793785649
0.0184016307079495
0.0308704726619554
0.0323827109965089
0.0185805920513761
0.0202457392019238
0.0344502468252231
0.034226362046151
0.0196453566324287
0.0184352239567101
0.0310404236458471
0.02803515843643
0.0173049374298611
0.0169418528524262
0.0256641979175251
0.0253278594304033
0.0164370091078619
0.0163869084530689
0.0236294735342811
0.0221422670847977
0.0163743856077378
0.0163755246053465
0.0207219394554959
0.0211357513404725
0.0164339195542843
0.0163605710106942
0.0194959858866308
0.0192716864679974
0.0160935275004368
0.0157615492312019
0.0184038636701301
0.017232871140477
0.0154241758097079
0.0152511542979006
0.0172105484648381
0.0174151810510853
0.0153793602855417
0.0151596489457561
0.0165732361983695
0.0166609626368244
0.0151422945076913
0.0150112476676916
0.0150038414229036
0.0153738829580178
0.0159613337679315
0.0159023040570543
0.0153415418135326
0.0150023106462329
0.015008879005139
0.0150059748657619
0.0150026357237264
0.0150025992330962
0.0150062516138167
0.0150064045921156
0.015002464080382
0.0150024511680581
0.0150065241701045
0.0150068178457685
0.0150017187509524
0.0150009501599034
0.0150008573427713
0.0150046729927294
0.0150051627594192
0.0150151075528082
0.0150128053871228
0.015030731772606
0.015039922090439
0.0150869321123481
0.0150689300358182
0.0150940087835286
0.0151069590318689
0.0151363603096758
0.015127337410257
0.0151144413689115
0.0151249723252369
0.0151585757449868
0.0151487455671655
0.0151546702824395
0.0151693197924318
0.0152068972196036
0.015191293196982
0.0152286255900468
0.0152452584704966
0.0152821150039331
0.0152658250671488
0.0152856592650806
0.0153023921773176
0.0154081177785338
0.0153666504379554
0.015374736114381
0.0154174317851228
0.0156998532001415
0.0155880518014912
0.015627221158139
0.0157330740723901
0.0157851589087644
0.0156970769396466
0.0162988521754832
0.0164422766833051
0.0164318077234649
0.0162889742899224
0.0164811378415793
0.0165952255107406
0.0178461210036341
0.0181004357150678
0.0194840578467165
0.035537145481188
0.0335355088808291
0.0191778565575039
0.0199689254438825
0.0207790714968425
0.0382803719164948
0.0355888041021739
0.0340223356240841
0.0190966453378976
0.0197529243515786
0.0360621918502215
0.0386522143620186
0.0429922726430061
0.0215384190775358
0.0204089624210822
0.0193034573908488
0.0188127657820053
0.0188460601465706
0.0193102285327486
0.0204986699285897
0.0214629985328722
0.0457290739581459
0.041030013971539
0.043235566180471
0.0205674322123227
0.0207432751133606
0.0398041156843062
0.0397204232529779
0.0207818690789748
0.0207105787561359
0.0366112281603721
0.0204479961191518
0.018082670359207
0.020466419443423
0.0403086617210102
0.0351350289951207
0.0201575670172766
0.0195716600035119
0.0326998661086477
0.0295553760247243
0.0175417882870538
0.0166037578748219
0.0272936995490288
0.0280719272854213
0.0165680727237255
0.0164848396087126
0.0260438477333168
0.02428114192246
0.0164567147464114
0.0164499870267319
0.0227565678747322
0.023489259219666
0.0165527320270003
0.0165795883002232
0.0213926180036889
0.0205311342772435
0.0164123677787609
0.0160193774644638
0.0197792285854928
0.01897783654584
0.0158646475257009
0.0158741838114342
0.0196711255454213
0.0181593266299239
0.0154652253927464
0.015620920026715
0.018562324131915
0.0186799961653381
0.0154691392570906
0.015344886347218
0.0175316187517512
0.017324375442215
0.0151402099425813
0.0150692723228612
0.0165555941944681
0.0165525970214658
0.0150712159060092
0.0150132178311974
0.0158998333185972
0.0153411553146977
0.0150033697465652
0.0150038641437939
0.0150084607432514
0.0150072197756481
0.0150026356516859
0.015002402647693
0.0150076058205902
0.0150079514331564
0.0150022089258161
0.0150016495625306
0.0150126102296833
0.0150063786190479
0.0150049229585124
0.0150002393736913
0.0150000562766225
0.0150057492548807
0.0150043019365357
0.0150224584166983
0.0150379782493233
0.0150785608791226
0.0150528192857777
0.0150159575826884
0.0150226324696866
0.0150768870410155
0.0150479795001359
0.0151020810860321
0.0151408756202866
0.0151669250036654
0.0151327223342948
0.0151734574755597
0.0152059829285547
0.0151435832747832
0.015131281147395
0.0151671723055423
0.0151790901932298
0.0151697545045786
0.015161430918641
0.0151954249233903
0.0152039445061287
0.0151930174780021
0.0151829629434691
0.015217508260588
0.0152280205109184
0.0152622076354673
0.0152514638474257
0.0152700615631265
0.0152818206773727
0.0153013657690557
0.015284445787413
0.0153042168101466
0.0153225361559621
0.0153234579543444
0.0153052952181604
0.0153893016913575
0.0154295761888049
0.0154403929965546
0.0153998131237799
0.0154230319355678
0.0154641141216044
0.015759586108634
0.015660203332381
0.0157803405095633
0.015842025009517
0.0165290263594096
0.0163881149596335
0.0166151727213277
0.0167031224438058
0.01721035981557
0.0171271479353089
0.0186183045936219
0.0183510673313158
0.0171536914169194
0.016852483733923
0.016339676377285
0.0158364996088627
0.0157260848544159
0.0157297819061971
0.015676036784832
0.0156658986618558
0.0156315123428096
0.0157455591211894
0.0157309750522601
0.0162979872697533
0.0168631347297437
0.0268469295089674
0.0238096013014296
0.0164502803400579
0.0158106406923668
0.0218202011594056
0.0201162151650189
0.0156096931660013
0.0153211461293695
0.0193235301491533
0.0182406839385808
0.0152210343441992
0.015224907702299
0.0182248000703217
0.0173169814381888
0.0151434194416094
0.0153587885513115
0.0175243825734492
0.0166620239134081
0.0151468250120076
0.0150111933823762
0.0150055264842055
0.0153728569313147
0.0159609654101051
0.0159108063963835
0.0150130663351345
0.0150018390991123
0.0153425005381547
0.0152870849505887
0.0158055488946885
0.015015296554855
0.0150023420215146
0.0150034204560571
0.0150085937986623
0.0150069637226593
0.0150030506537093
0.0150043897593217
0.0150095593857583
0.0150128100913257
0.0150588777246561
0.0150553229556187
0.0151641773871755
0.0165770335633993
0.0164011330766037
0.015099568703764
0.0151582082601064
0.0163851291076091
0.0158073936482594
0.0152852767088284
0.0150065767374336
0.0150281729595852
0.0150147162542927
0.0150046575702071
0.0150097096896058
0.0150329120865981
0.0150441101116683
0.0150091176130267
0.0150270163310265
0.0153128721914887
0.0157399398101372
0.0150625482435525
0.015280595734997
0.0163156901874106
0.0162936732468445
0.0162772429191343
0.0151432665286887
0.015252564070248
0.015060731119063
0.0150440787155621
0.0150190788010937
0.0150270028269229
0.0152725217184303
0.015290466858607
0.015594824551071
0.0156530505639133
0.0155925725237997
0.0154124875887206
0.0168737304861558
0.0169833432968733
0.0171594819695985
0.0155444797288269
0.0159815391949826
0.0185688351595359
0.0182579435574629
0.0179215553414088
0.0157002400075965
0.0158416933183359
0.015636297200481
0.0154204305750162
0.0151318450234048
0.0152000657213655
0.0152268110198171
0.0151505837610577
0.015308318339291
0.0154451030205775
0.0156581599647933
0.0154367341160666
0.0156966471623233
0.0159197973078908
0.0189690030580416
0.0186178564180523
0.0195675891381654
0.0157364829149202
0.0159895489684129
0.0199250570336538
0.0205803087907005
0.0163907877137598
0.0164707840564928
0.020993954464125
0.0208356544661464
0.0205972693314903
0.0158018433971894
0.0161212023663744
0.0155671424970456
0.0154197842522363
0.0152216163190142
0.0152770110894244
0.0153264958307719
0.0152745857781969
0.0152149935430485
0.0152480379791825
0.0152904027623744
0.0152559513739183
0.0152025481982419
0.015214806629662
0.015251045342005
0.0152386079859841
0.0152299622079131
0.0152389973037591
0.0152737084250948
0.0152640747247494
0.0152829413327995
0.0152938022777552
0.0152817355714957
0.0152699349056032
0.0152897698429649
0.0153035711832515
0.0153033879294023
0.0152896799959222
0.0153098403152099
0.0153265547662753
0.015345002819189
0.0153243035180096
0.0153252675444304
0.015345855018313
0.0154508128466771
0.0154109665801506
0.0154229392255665
0.0154583095697455
0.0154722808731472
0.0154386283056043
0.015450731669328
0.0154851455959011
0.0154858970400664
0.0154516730418858
0.0156802550207231
0.0157642398392801
0.0157887508653239
0.0157043323751367
0.0158109153963976
0.01586724835851
0.0158723887917508
0.0158331514452621
0.0159161026085498
0.0158763735480057
0.0158499936136837
0.0157940413617817
0.0157903395202626
0.0158488823857891
0.0157679571333388
0.0156777990066737
0.0156673520127259
0.0157565030675515
0.0154716431175821
0.0154351537970986
0.0154350049300474
0.0154713826285308
0.0154858104308052
0.0155218352625573
0.0155383315860531
0.0155473121780809
0.0155471765165944
0.0155616376555948
0.0155619036849298
0.0155636572567886
0.0155631858689862
0.0155717257073498
0.0155700283601935
0.0155869907596547
0.0156100277432242
0.0156130167765034
0.0156730107361552
0.0158130551785041
0.0159013360080036
0.0154451846225516
0.0154719206212619
0.0161894773980916
0.0237848976587198
0.0220997277897251
0.0159361272782162
0.0155759496746924
0.0205821681728965
0.0205526365750078
0.0157768506476335
0.0153606716961552
0.0192930692809568
0.020003679375824
0.0156792053513521
0.0154758979203023
0.0186406401981424
0.0185121754804177
0.0155234662502852
0.0153750565355018
0.0180439995975506
0.0180753731043505
0.01557500949738
0.0153234868279048
0.0171242158487842
0.0172038976894538
0.015468784667503
0.0157221752025118
0.018209790470996
0.0199873565974482
0.0163435634429169
0.0161649762401565
0.0192465442064123
0.0195369278772163
0.0165618456590264
0.016584628151026
0.0201894069934134
0.021480792048263
0.0168784246825252
0.0167045203573015
0.0220789528059084
0.0220451471355963
0.0219981062153676
0.0158653331640294
0.0162154876185437
0.0156388323287513
0.0154915573114909
0.0155890503528224
0.0157365408523239
0.0153879486892476
0.0153339788991073
0.0154088425673438
0.0154713812774028
0.0153350578885469
0.0152995733704289
0.0153446873602838
0.0153776779557828
0.0152861811301469
0.015274005620911
0.015293316660986
0.015306409160782
0.0152937910279781
0.0152829326532999
0.0153033642960708
0.0153164799568362
0.0153162849028063
0.0153031945084983
0.0153242579429776
0.0153407623192774
0.0153271727924878
0.0153102491235997
0.0153211131488765
0.0153354721500233
0.0153482449027891
0.0153350499132755
0.0153344327901387
0.0153473724790338
0.0153472520729408
0.0153342977523972
0.0153483733593555
0.015364840042598
0.0153652972305971
0.0153486290879653
0.015349486901783
0.0153659793843568
0.0153658504982504
0.0153493291459309
0.0154326866578851
0.015465706866931
0.015477215658224
0.0154463044007893
0.0154557726990721
0.0154877057997885
0.0155005837583268
0.0154679162392571
0.0154694108518175
0.0155018609430331
0.0157739983786797
0.0156955828775492
0.0157311323473641
0.0158119149739691
0.015891114761445
0.0158355846627737
0.0159035520704834
0.0159271687329541
0.0162625720761681
0.0162732560176334
0.0163086143198301
0.0162989926755385
0.0167792628340163
0.0167002805790857
0.0172311121201603
0.017307430653725
0.0189923478170989
0.0185892052454954
0.0208929025307292
0.0447514041286688
0.0408623314757919
0.0203539859530297
0.0204744418877182
0.0429378175652101
0.0451819910389766
0.0204545599063258
0.0207349665511577
0.0431023658819853
0.0436128150572275
0.0208296622045939
0.0209058385338998
0.0487757560791595
0.0441330621250866
0.0215313473978717
0.0223801443705858
0.043435115945953
0.0379661500433794
0.0217065145442221
0.0214968571902442
0.0375308682884254
0.0350428697944875
0.0208216543713124
0.0203717660332972
0.0342788640660606
0.0366755878230376
0.0193406559535494
0.0180959810859857
0.032866344261232
0.0303229263295178
0.017076284718845
0.0168943529665592
0.0330985212630662
0.0301195197674343
0.0166741316669563
0.0166069782112264
0.0274761710912524
0.0252859270785058
0.0165667582733704
0.0165725502601796
0.0242619218084918
0.0228047838190637
0.0165570282356629
0.0161628634654192
0.0216938375294729
0.0205092885867821
0.0161127301030231
0.0160587989123937
0.0204443424857389
0.0159895752020075
0.0161028783796133
0.0161625916101544
0.0218311422799687
0.0227400195108484
0.0161458517614869
0.0160512521566812
0.0202822500391821
0.0153286059088117
0.0151297523935566
0.0151343635563286
0.0152869773006877
0.0159375354913124
0.0198891589072666
0.0191134629453367
0.0156809562632023
0.0160323374817265
0.0194297387686658
0.0204125971126838
0.0164211628430345
0.0167967348350948
0.0211231919652607
0.0211286663663762
0.0166114249087594
0.0166571819167131
0.0217146216501396
0.0224657549967606
0.0170416958366003
0.01702811926098
0.0231014961432532
0.0234127865172984
0.0169002129882943
0.0162608185625673
0.0159073420329757
0.0227983975017489
0.0232475623054216
0.0243606111369632
0.0239084335715734
0.0165018496920083
0.0169711212806854
0.0159410275064635
0.0157491283891733
0.0161477317399591
0.0164222634646726
0.0155841553290004
0.0155159712276852
0.0155450359103447
0.015610002257678
0.0153993179307618
0.0153665471334592
0.0153649516989102
0.0153967838362591
0.0153064175200216
0.0152932469384514
0.0153141898832107
0.0153294001940059
0.0153290896598496
0.0153140640646097
0.0153357702189311
0.015354060596254
0.0153413111716071
0.0153246961479799
0.0153362398646597
0.0153502258619896
0.0153637455974683
0.015351050888833
0.0153501877629718
0.0153628493706485
0.0153629450593607
0.0153503108074536
0.0153353955632667
0.0153485227589049
0.0153632019036131
0.0153506291385769
0.0153499556698053
0.0153626322581503
0.0153615073291007
0.0153491495965961
0.0153490012730273
0.0153613651095516
0.0153785008687976
0.0153629221188773
0.0153633983469663
0.0153792972601632
0.015379775409356
0.0153640716047382
0.0153639340705552
0.0153796383079855
0.0153936479169766
0.0153777613285729
0.0154583386471192
0.0154887675440977
0.0155031153779288
0.0154711558285966
0.0154834378803604
0.0155162453593617
0.0155179803717178
0.0154854533476217
0.0157081952309338
0.0157848993623583
0.0158351899793534
0.0157541079870004
0.0158600781383396
0.0159166196155269
0.0159587534684056
0.0159380854844927
0.0159747436187137
0.015988285256512
0.0164766480722564
0.0164749729750122
0.0164970677995117
0.0164937693244652
0.0168574286407614
0.0167882432984119
0.0173276112222044
0.0173958859970558
0.0188474814665953
0.0185906626984028
0.0207475683476396
0.0475788995127245
0.0429614811929726
0.0203511384308575
0.0204121408958213
0.0463163797180071
0.0518356157984325
0.0207787272432601
0.0186527574186634
0.0188736059428397
0.0189546244569691
0.0187458833158441
0.0208714159872634
0.0570065725473535
0.0502677980383749
0.0205202043753427
0.0207185872998143
0.0542881749710097
0.0493322446407832
0.020484039721528
0.020926273169703
0.0479777521752475
0.053873223357421
0.0214048148546435
0.0211563831794327
0.0550457539349794
0.0504230551371987
0.0239096446537638
0.0251938197269417
0.0486210820677139
0.0415832795277791
0.0235671600685963
0.0233951077975809
0.0412606891919959
0.0384825069008434
0.022168044348272
0.0204654180664251
0.0370727143202966
0.0432418886560721
0.0211410932790349
0.0197142742966853
0.0404661699620862
0.0449715729675266
0.0189702200589718
0.0183327995202105
0.0404560438098061
0.0364663497405552
0.017379655295677
0.0169626832298734
0.0339397041899912
0.0310332685843923
0.0167970959288005
0.0166968560560704
0.0284690796506731
0.0261644006520131
0.016616000909276
0.0162398603206975
0.0244423035677892
0.0229175984851164
0.0161923270891864
0.0162062020776506
0.0230209306966709
0.024260715914057
0.0164375310341718
0.0172909977490453
0.0257038304784853
0.0273734106352925
0.0175714409201002
0.0174075504443046
0.0281546935084424
0.0301938885558016
0.0178923071995117
0.0173580053563079
0.0298170986597214
0.0259245010126693
0.0166492655405236
0.0170571854479579
0.0256923547367258
0.0238423149377061
0.0162332580192171
0.0159972440322461
0.0221043478627181
0.0241991359621379
0.0165857259354201
0.0162755522901716
0.0216276545645575
0.0221132261846506
0.0168611394656995
0.0161228383135633
0.0207022832558465
0.0200648232796551
0.016155759414619
0.0163404381879274
0.0209187067989327
0.0218096571248147
0.0167731262176051
0.0168878215032025
0.0228808636379287
0.0227290823083554
0.0167359672792572
0.0169334355204968
0.0233673346508869
0.024406411730782
0.0173150884159498
0.0175525044169768
0.0248781136461019
0.0247784651542501
0.017429474373765
0.0179609597869236
0.0263573837029549
0.0256517855901733
0.0252072913077779
0.017148636390265
0.0176987392067326
0.0183641013439259
0.0179114378541151
0.0268403938487799
0.0271573322682642
0.0279749016999409
0.0184746189991017
0.0187924266656501
0.0300476281275916
0.0292386452794998
0.0293359689385871
0.0189586274068816
0.0191192862260474
0.0185226630179506
0.0180690004532931
0.0178095186558407
0.0183821590600119
0.0165062130448894
0.0162467754376547
0.0162310119648581
0.0164955691033318
0.0156223290789927
0.0155514389837998
0.0155859924456162
0.0156549065800653
0.0156311498280231
0.0155710199766739
0.0153900455194767
0.0154233274072433
0.0154166176574985
0.0153855920970807
0.0154062467241394
0.0154374273240866
0.0153548777768124
0.0153362869524784
0.0153484741853387
0.0153641448590391
0.0153783621647785
0.0153641619228889
0.0153630272240568
0.0153772194364275
0.0153765807709278
0.0153625475804164
0.0153512398533299
0.015363990428475
0.0153798847409733
0.0153676230540011
0.0153669905491135
0.0153791910167599
0.0153779879728173
0.0153658653416126
0.015366075825315
0.0153781829737389
0.0153938696323254
0.0153814185559752
0.0153654037586674
0.015378297892673
0.0153773233970039
0.0153643099502948
0.0153633042035874
0.0153759416759659
0.0153757463076191
0.015363131897428
0.0153767421968297
0.0153924023281884
0.0153935391512301
0.0153774119448902
0.0153778966376398
0.0153938409955534
0.0154080639917158
0.0153915318648762
0.0153913827236107
0.015407782333294
0.0155002993492533
0.0154699116466803
0.0154858993010256
0.0155183804174067
0.0155319642051313
0.0154984856349425
0.0155009938851234
0.0155341613407213
0.0157964793734327
0.0157202257310579
0.0157759190916086
0.0158582816907564
0.0159426021205614
0.015884479102438
0.0159088884368936
0.015968620427221
0.0160173255731765
0.0160040186349979
0.0160335628436502
0.0160466337643871
0.0166014631366714
0.0166131441083932
0.0166272344923624
0.0166055161992573
0.0169406048183261
0.0168821816927571
0.0174433592282726
0.0175074280030301
0.0176400903910456
0.0175753112888076
0.0177195454631589
0.0177847976339304
0.0190584709493252
0.0188624023561082
0.0209992611592293
0.0632385461988635
0.0550352884539334
0.0206635634438392
0.0210030021777897
0.0600980106610153
0.0609835556601889
0.0219330833114408
0.0213051300182585
0.0612954304291077
0.0578162791675943
0.0242931283036015
0.0265528799376755
0.061466293531657
0.0556244015098157
0.0269219792763274
0.0271796191629166
0.0524500240047028
0.0452333177097688
0.0250547704395644
0.0247457136365458
0.0445439444289608
0.0484240170746901
0.0246897289520336
0.0233844404854878
0.0480576333606116
0.0520321701802541
0.0235398728035411
0.0215981261087525
0.0495510694777955
0.0445407881782806
0.0202450387483683
0.0197688074050763
0.0499132916167944
0.0448178903256899
0.0180850318330695
0.0176047772744706
0.0408567529554491
0.0372255478074301
0.0172394685369319
0.0170319412295033
0.0347344151897214
0.0317264112346092
0.0168003114879704
0.0166303102572032
0.0290549733655435
0.0266098358835399
0.0165289033465028
0.0170832220532081
0.0259855931737361
0.0268287916376442
0.0175984407141406
0.0176884420687295
0.028475929574723
0.0307517653814747
0.0177857205630419
0.0179671939399879
0.0334188469173903
0.0363891187613749
0.0181473462188818
0.0178538369605664
0.0312340314773252
0.0338996546901688
0.018461633077028
0.0179168407144072
0.0331081521617759
0.0285314933054191
0.0170651980047724
0.0178770652177777
0.028857033740862
0.0313455281942436
0.0190645524017444
0.0185580729532588
0.0298905724672084
0.0268482731967954
0.017004111335337
0.0174133070214048
0.026130699203729
0.0285865176512583
0.0175211657668847
0.017341201967344
0.0264778371640189
0.0247274456917448
0.0172425425573526
0.01716786798776
0.0231078547734015
0.0219104430560347
0.0164743618132742
0.0164042807402095
0.0215951146712468
0.0226997654642847
0.0170327597821049
0.0171203587287916
0.0249674065258108
0.0245737911976914
0.0170073550281562
0.0170004593076084
0.0244668857619021
0.0252840458151133
0.0174853658661059
0.0184824196648825
0.0273943191089431
0.027012086039966
0.0185065786905603
0.0184122538008285
0.0276275940607591
0.0281519231467676
0.018887581156555
0.0191575374325168
0.0306950026711663
0.0332287190703582
0.0192725251042248
0.0190908739332721
0.0323744858043069
0.031481394667727
0.0321665153996667
0.019075006659639
0.0196333212841457
0.0183092279469597
0.0179639668310837
0.0163308748095024
0.0165833062492365
0.0165301602060945
0.0162901994060388
0.0163324077784304
0.01653797020837
0.0156877596291021
0.0156200398437196
0.0155936007002421
0.0156482199818169
0.0154492758877078
0.0154143409114177
0.0154272006152335
0.0154576132136969
0.0154723653861263
0.0154439277085219
0.0154354508155042
0.0154612134849764
0.0154492263460003
0.0154245134438575
0.0153640329332634
0.0153784231291586
0.0153955830648907
0.0153817983024732
0.0153814766967301
0.0153949733586637
0.0153937629889074
0.0153801489370818
0.0153790949540738
0.0153924994457877
0.0154094596425899
0.0153957273827915
0.0153839404328408
0.0153965925882874
0.0153952998631822
0.0153827503763794
0.0153812029327272
0.0153936345551975
0.0154098090240777
0.01539667185148
0.0153966497247944
0.0154099549254712
0.0153936987945622
0.0153800485216365
0.0153784599983569
0.0153922301395182
0.0153905612244839
0.015377270061786
0.0153770745405872
0.0153902921347539
0.0154064467625448
0.015390369755168
0.0153912143977717
0.015407922528635
0.0154226109783681
0.0154053499252292
0.0154055002844947
0.015422606158318
0.0154222255307245
0.0154053319154872
0.0154817182319518
0.015512095115811
0.0155338434632016
0.0155008405377872
0.0155138955554482
0.0155480713086761
0.0155507633132013
0.0155169294117931
0.0157326588816448
0.0158086050557213
0.0158813666974118
0.0157978824932852
0.0158198239631632
0.0159042988388067
0.0159947089581368
0.0159332119683571
0.0159574951441367
0.0160208593330006
0.0160757163674321
0.0160623086476018
0.0160917401181735
0.0161053151908165
0.0166935658148402
0.016725825202998
0.0167361927329527
0.0166931673834496
0.0170295167557876
0.0169816812129492
0.0170812086645874
0.0171231535811889
0.017218929603518
0.0171850291940238
0.0178720083029476
0.0179347246003876
0.0191772159214528
0.0189953154163415
0.0211495973245242
0.0703434495064015
0.0604638382964207
0.0208341126519353
0.0212289510412661
0.0669748701735287
0.0695566803581299
0.022381093594388
0.0214971491861141
0.0682986128067976
0.0664204034952272
0.0240846770454109
0.0262393736561079
0.0709711004785252
0.0621558370399332
0.0267412031270408
0.0250844569175392
0.0514565637652717
0.0468905334355359
0.0249697841875335
0.0246786340795517
0.0459295778019907
0.0492798938438102
0.0246711484914262
0.0248196051428567
0.0546669447325339
0.0617420322661639
0.0252260537596414
0.0235044256968831
0.0564750862240955
0.063129780279781
0.0244098156536479
0.0228131757134048
0.0608716651784127
0.0499534013072753
0.0209674368718088
0.0209177789679273
0.0554272491819773
0.0491994628802785
0.0187298580825752
0.018133761067767
0.0465885940016504
0.0420833170731741
0.0176852330942964
0.0173224569373423
0.0381714890256622
0.0397697972558164
0.0179395658445746
0.0176402357725388
0.0358980079885763
0.0324638505173934
0.0175111713573054
0.0174486676066303
0.0295938252389447
0.0173869278363352
0.0173280190710964
0.0174205218895361
0.0166942213376522
0.0156564479093153
0.015611182636754
0.017008477250161
0.0182643209793118
0.0309162975617473
0.0365677502119162
0.0182124670348519
0.0179620448498997
0.0336967498181815
0.0308684084100121
0.0177313955002341
0.0177697805551567
0.0301723301042702
0.0278779273995268
0.0172918477422049
0.0178484561195582
0.0295024328787479
0.0273623326938619
0.017520563428024
0.0172701856101792
0.0255864794337356
0.0242197487964723
0.0171080879900374
0.0165806425030837
0.0232999834172772
0.0245655987705148
0.0167629060446034
0.0170021441442881
0.0260885000474132
0.0279171125102843
0.0175164307487269
0.0173188581369667
0.0260008122687237
0.0244028484007187
0.0171748191061752
0.0171462054451295
0.0162079767551674
0.0170372736145257
0.0245995697178025
0.023493197443987
0.0171590878406484
0.0170502614463743
0.0172440166914632
0.0165308069370622
0.0174323649042488
0.027204226084806
0.0288733287223975
0.0180142974947954
0.0173423231540653
0.0175997526759705
0.0180312989204437
0.0327303430194425
0.0298951340651724
0.0175963226934495
0.0182126870758309
0.0320334642000824
0.0340071659979765
0.0191422712254855
0.0197446718178498
0.0310359353382655