/*--------------------------------*- C++ -*----------------------------------*\
| =========                 |                                                 |
| \\      /  F ield         | OpenFOAM: The Open Source CFD Toolbox           |
|  \\    /   O peration     | Version:  2312                                  |
|   \\  /    A nd           | Website:  www.openfoam.com                      |
|    \\/     M anipulation  |                                                 |
\*---------------------------------------------------------------------------*/
FoamFile
{
    version     2.0;
    format      ascii;
    arch        "LSB;label=32;scalar=64";
    class       volScalarField;
    location    "1600";
    object      omega;
}
// * * * * * * * * * * * * * * * * * * * * * * * * * * * * * * * * * * * * * //

dimensions      [0 0 -1 0 0 0 0];

internalField   nonuniform List<scalar> 
209453
(
3.61356974933847
8.63414245233182
29.5168270421602
27.1835863525068
7.67723996498908
7.41583065436657
26.2354530867565
26.5414981038778
28.1537041657943
5.81505085772508
5.56847246684263
2.93003278972983
2.73397306436908
2.89138146180293
3.05272583031219
6.10786973464178
28.1691284352024
29.1580199194722
6.08437338080827
6.23285213146721
31.0736783289876
29.940361420808
6.46019465427811
3.24924584887872
3.05335728131032
3.30459407269646
3.49704538050006
7.25805524544039
31.9402373431604
33.2852000137068
6.90283391848838
8.88846886209268
38.3307462054373
37.0211260988414
9.45205138721011
10.0958053119937
35.9648151567012
32.1669616930849
9.11761140831832
10.1090104364386
35.9769270074783
34.7378859540225
10.259946130903
9.78479748917299
31.0072965616807
25.6635919943835
8.13732707576419
5.59080545142438
20.3732281798326
16.8696892174945
3.55628514938573
2.38847430243244
14.4795577743259
14.0528736546206
14.3078949850198
1.08329899247145
1.09912181007494
1.02230793044362
1.00389662469874
1.00292381173986
1.00200669755108
1.00596273321357
1.01299243407422
1.02855692045554
1.01317836762385
2.48493587585717
17.5239309113581
15.8854162396763
2.40822041923602
1.15515372720268
1.81383029817199
16.0655072140572
14.4258429026763
13.9025837835804
15.3789557214968
1.15331003772613
1.15752822894321
3.88395169466956
18.730521208512
20.1815844517467
3.92607420350535
1.33467637385437
1.38300490464409
1.3907154462236
1.33774349708924
3.74298609035799
4.0122197358163
4.02972986029886
3.75344455978972
2.63644746897103
2.66393794265808
1.39962184381364
1.34261062867027
1.11179898746767
1.14342044555351
1.41883939977323
1.28937927315451
1.40526568377557
1.50937101277739
1.54068909675755
1.51044661464707
1.65444013225706
1.69045185848878
2.10340263442618
1.89089233362752
3.87776869520259
4.34673168392957
5.64323416468931
5.47388567102753
11.4937322099785
48.33204184127
46.1559683460928
11.5428285874582
11.8635870258951
44.4674569006285
39.9878143652831
10.7019366928572
11.4974864458353
41.0203253491569
45.5615926479219
11.5849409797018
11.9847371872394
47.0166506076546
52.2150841401569
11.7322661966068
13.2989642612447
61.2236280011623
77.0507898432064
20.7237763611933
16.2155473297311
58.809911485976
50.9776229081506
13.4487255661951
13.87914737842
49.7402308396638
43.6208407279709
11.753346629954
10.7321585277674
39.6243266164291
37.1719202671755
10.4278943476385
8.22775358630398
31.4283314510242
30.0129438539628
8.0036869324445
7.76093986280407
27.6902659223957
23.8655518961366
6.73866797091816
7.31374286010758
24.5630632932297
20.4121035508167
6.11834168409733
3.83068428501913
16.1769718378704
13.665092948997
2.46335652059502
1.03664633249566
1.00860122231452
13.894297086826
13.2922705608704
12.1490821648859
12.0440115058363
1.00304014728971
1.00997194737208
1.00308995682953
1.00125484389904
1.00310156353703
1.00942898298849
1.01168126214301
1.52897136677699
1.4706531811365
2.18604347214548
13.1957292603176
12.785256532054
1.78348159684292
1.00577278935667
1.00165557804059
11.8553295126506
11.9247130708788
13.2253418763072
13.9077561855533
1.00408652617072
1.00981708383324
1.00101293097082
1.00057809689656
1.00020997563809
1.00039144889482
1.00090680808335
1.00038327934698
1.00067367114328
1.00296605896501
1.00119674356634
1.00040835211387
1.00034182652227
1.00050842458998
1.0000970449153
1.00007057738896
1.00015297440624
1.00027355822164
1.00064920497297
1.00033129055434
1.0006583939074
1.00258602191588
1.07168465719729
1.03809814723693
1.00432567200775
1.00821831487201
1.03106080500213
1.02175228579413
1.0378262545904
1.04983924231125
1.07349889669757
1.06275161373707
1.17283600761479
1.21262307319425
1.25401182373168
1.21505993438684
1.26680228137341
1.30717931573408
1.3952357885754
1.3417760015303
1.44609610842621
1.5089943600563
2.54548550705017
2.30091546319369
2.55681199355651
2.71900935525919
5.71661916259414
5.55488312535199
5.5495798453358
5.70428431892037
11.2164951617639
12.7899789299748
14.485223752405
11.8671651653326
11.4794034666074
13.7474968439527
20.4660235287339
88.6921192997683
66.3639927021131
16.2653213156315
13.5520228709585
56.9373969358889
59.4292705288887
14.0954252450256
18.8879910225061
61.8010980443547
54.0968531516109
16.5261590512949
12.144402611791
40.7931828455862
35.3115138234999
9.43909311319474
8.54562814694252
32.8572082726178
30.8757715859306
7.96167550921802
7.93552661441089
30.1855735234099
29.6304234778926
7.96719436850917
7.96833955406256
28.1144273703674
32.9198264326261
8.67946553035517
8.16563499390087
28.1826957712093
28.1864296977092
7.3783874997764
5.40130043791898
21.1722902332251
16.2155288879663
3.59866893425182
2.6066137191932
15.1428647144071
15.9003773693998
3.60423835022883
2.20301217389154
13.4830830068595
13.809421250694
2.07578100447865
1.01102273682909
1.0036679004102
14.960103682656
13.9559889751738
12.8202303485052
13.6187198260244
1.0031091222715
1.00856991591448
1.00047986445189
1.00020664577587
1.00020736212142
1.00046690613739
1.00049370259072
1.0001943137675
1.00018581870795
1.00056342802783
1.00060898511359
1.00009726310141
1.0000212900956
1.00001820290257
1.00031981322
1.00038220887772
1.00172415219292
1.00133362825586
1.00693413318242
1.0113788095618
1.0346813920956
1.02457710708924
1.03509245766946
1.04519613703148
1.06208236003497
1.05515373232373
1.05151922201865
1.05816127873624
1.0848374968649
1.07748216949405
1.09256437057692
1.10501846984158
1.14388014729056
1.1292252002535
1.1770231555071
1.19476921269733
1.25939069413996
1.23431745835133
1.26836823308873
1.29879078875883
1.55075786841212
1.48413399248344
1.50767594418879
1.57541406044556
2.59564104398645
2.3614688155922
2.43290692606402
2.65397002590532
2.86126811952658
2.73309922231834
5.65717044705907
5.82195888326954
5.80481571843129
5.63013690435866
6.28607232069792
6.29061226989828
11.7641857286333
14.2116619909197
21.1438727770788
91.9653536399629
69.5538864355132
17.1354845684778
19.8759849540175
26.6107923853141
104.240958221705
77.2183586007936
66.8740534737241
15.6908624201133
17.730539608084
76.8182865896662
88.4013915810951
123.379365752381
29.7013535166848
21.2215778189912
17.0740729706702
17.1002631047753
17.1748155122119
17.1083429226892
21.6379499924139
29.1874063859069
130.156553435653
94.0122861522183
89.01182416725
21.4576656484393
21.0671237147003
91.2655925084884
90.7980069465876
21.2179999369968
21.0902162372629
83.5155658676374
19.9974923455455
10.9802946320327
18.6436836671809
69.3395378090562
52.0238398119045
16.2952461658011
14.7008637916026
44.7577363789031
35.4449613805954
10.1459065647794
8.23830124927471
32.0916732523144
34.7865594528736
8.50871975542867
8.42745373699664
33.9534711322892
33.8932262535506
8.48533042606962
8.6212779532283
34.3432710092456
43.7811258998224
9.61544057609993
9.96280196735586
40.1164606552614
34.0044246368812
9.07697668629311
6.66246676435809
29.7448724965273
25.3125651415535
5.90830766916899
5.48449290848866
24.8844614641808
18.5318743333345
3.65197032545288
4.79460368421715
19.0576332168952
17.7774426857182
3.80027438665845
3.29548005270129
15.7710756038009
13.4752345424274
1.81005300937954
1.45465581584742
12.5243395772581
12.4917360581878
1.42253289760237
1.00767582524487
12.8052004519413
13.601959297801
1.00275010306881
1.00038215663475
1.00084070358794
1.00059252748164
1.00021248246167
1.00018615520439
1.00065774478669
1.00079184328154
1.0001537577477
1.00009401445744
1.00236609113133
1.00066263235197
1.00040394369403
0.999971696170639
0.999959184318567
1.00159626231934
1.00148028470461
1.00645352869162
1.01643928756033
1.03617893600717
1.01672609153721
1.00219407276994
1.00438482309799
1.09089822186485
1.05114243027666
1.11518038773743
1.16419420265728
1.19408118905675
1.14057519294404
1.17632014951059
1.23065104683888
1.07667357238525
1.06424658692243
1.09445341734494
1.10751648606424
1.09031726916021
1.08191917124728
1.11794349080312
1.12659984503362
1.12025828391333
1.11169476313237
1.15786633936058
1.16816896074131
1.23192251151747
1.21405550112921
1.24976985690914
1.27469941397859
1.30297826264891
1.27112708064358
1.31571254534982
1.35590526340674
1.34810173579838
1.30861098321646
1.52776105154023
1.59885574293333
1.62321669862344
1.55575281435143
1.6041739338793
1.6811042802396
2.69947426426074
2.49086425091984
2.99191318064029
3.02089217201507
5.99747409722249
5.82829324180818
6.55932445967269
6.47151802114101
8.59384410024391
8.9713399163144
16.2999754025509
13.5655612947351
8.16353819500559
6.72859050691624
4.57982977924361
2.67704467914953
2.30602675743567
2.32181684093245
2.35646689664743
2.33235464382941
2.28581251274613
2.92933116901571
2.8940485857153
4.68957822779084
6.73699347136463
27.2560133650802
23.2922327250515
5.82677221832241
4.52319137503471
20.7467488748687
19.2692849490584
4.16691058622073
2.23715212593736
15.2193658618429
14.3935425108045
2.06094450311439
2.0069660640435
14.3146823728821
13.4181607894686
1.77343138589277
3.1950456786804
15.6313151817757
13.7467383708987
2.01507346448458
1.01089963850242
1.00331596181406
14.911481025124
13.9176114201751
13.1720219009265
1.01403984005167
1.00856792859757
13.8527956969139
11.8119535713866
11.6874945328291
1.01081174531012
1.00693619233837
1.00032404671206
1.00083515808489
1.00080495541983
1.00030216406644
1.00047898483557
1.00135112013038
1.00234302087537
1.29710010752131
1.34583789414977
2.17879776187612
13.4147708642827
12.1989920008383
1.6244904553142
1.93143628512418
12.345846982719
11.8566927535078
12.0248777878238
1.00250009479626
1.00902429518958
1.00233975008391
1.00054644700043
1.00177097200965
1.00910096381196
1.01911254186467
1.0018065857939
1.0989322465179
14.2885422126427
13.9182943058783
1.10836970344534
2.52322887591766
14.3626934986228
14.3825691470298
16.1561016376159
1.65858359577384
2.34042946019366
1.16160629834119
1.15075631715627
1.18520980596165
1.16842462595019
13.8977378589161
15.372083313381
15.4957255198165
13.6983140402266
4.46611727340752
3.90303684027562
19.1208676501174
17.7117486658735
16.7645985206814
3.54547718868566
5.48872028989761
19.995094367112
22.9946779550902
26.1276955666449
6.04551355361248
5.71518743967855
4.21557259034185
3.60821093516946
1.3661479679168
1.4748315564559
1.48609405136005
1.37393525775363
2.49392971637507
2.72824145830229
4.22165581054083
3.61816694405778
5.69172836300898
5.70826330310866
25.5114132058236
29.5614703638459
28.0189140279905
5.72404105039355
5.83283447448606
26.4048416700237
26.0433599629762
7.50978872297292
7.73276203038579
26.9076854997874
27.8521892236748
28.7693455710613
5.92994550513162
6.2838341337026
3.05077491300041
2.69598633639067
1.41523496984829
1.5379258680523
1.57041475634555
1.49570594697539
1.21708566812711
1.27054746642637
1.31978777681098
1.26761437144007
1.13328381203983
1.14539335648108
1.20096276643076
1.18854702103188
1.16863443883559
1.1815173670618
1.25409458744118
1.23307435601145
1.27787713278978
1.30620328507417
1.27967547722322
1.25374589011154
1.30678509368112
1.34217645303334
1.33087882823904
1.29659396011035
1.34979862106625
1.39883383055792
1.41904935946918
1.36546848663644
1.35634827925096
1.40831026635684
1.65408808555277
1.57490473822629
1.59610791056479
1.67374126686744
1.70831531317068
1.63217260579481
1.66312080276159
1.73177413228494
1.73414168675628
1.66235680989816
2.49287481009203
2.67761770992551
2.75360310761694
2.56772917087095
3.00101063036961
3.05494040490902
3.07609777007103
3.10804521504088
3.45173523380092
3.08269376072446
3.03902130268505
3.00987697009881
2.98602873723661
3.03216489640015
2.71339720656569
2.5165308996297
2.4854968989544
2.68122827045331
1.70096344266318
1.62589763621467
1.62959719140684
1.70206662094658
1.73207141395748
1.78653531679449
1.83504214120623
1.84864513792586
1.8543483569005
1.88528538703623
1.88157064439145
1.88813691803235
1.88943117253839
1.93454870657433
1.92524435685018
2.01223087100885
2.20758306446041
2.21736808034544
2.51738192294876
3.1420358640277
3.39040849547716
1.8067426822552
1.85052272968107
3.87040254121755
19.2768904891875
17.943154318189
3.36020536026776
2.7181702275853
16.3471680789372
16.8166221141407
3.21596255151662
2.2805352867388
15.2089612997214
19.08725200636
4.18712923140964
3.63570345505153
17.522537397042
17.8778394973564
3.98678569784956
2.90015914641693
15.8586377270631
16.8110968706902
3.91389126957804
2.81901925547541
14.2387085639799
15.3744134884322
3.36641547587341
4.4304628897379
17.8733191449703
23.1679257607846
7.0288605884466
6.12971206650303
23.0535516941127
25.4917034835849
8.16535325378061
8.72396855631012
26.3663797189299
31.9311750657401
9.64202547625689
8.62419407657878
29.2464800870429
29.6528362444658
30.7211236520891
6.02630240201454
6.56698734457592
3.18514831401429
2.82999986522747
3.04419405213649
3.39900891784016
1.66885474482471
1.60604608589711
1.79655100534998
1.87493239960013
1.39693331333419
1.34249473656036
1.44603625289024
1.49857329045385
1.27787286050483
1.26046460166083
1.31268748808383
1.33745527157242
1.30616906861715
1.27789972425296
1.33973725969058
1.37812348756163
1.37320200970723
1.33479381576034
1.39811527627128
1.45367733183461
1.41640124167667
1.3637038348939
1.38820068035079
1.4427491188096
1.48237401080813
1.42711657765095
1.41778976711941
1.46416388879062
1.46832292343845
1.42014179214577
1.43736326263317
1.48518949038321
1.47768395777662
1.42337092718596
1.41661092224109
1.4637412018238
1.46558265369538
1.41528656625764
1.62822868378879
1.69789495551298
1.73251434528175
1.66507832312736
1.67522601182572
1.74607845763688
1.77635597268455
1.70318182184324
1.70341259340083
1.77189841282397
2.6932332947594
2.51239490400659
2.62416950293682
2.80155186913128
3.11124188165007
3.04561331920763
3.34585751804
3.24193660043971
4.6035834303296
4.95627110305484
5.01270081872233
4.66960163830618
6.55565943802914
6.6475762416656
9.15862369233493
8.73318828025069
15.6610323171608
15.6388677348122
26.3013852129486
114.915072725629
88.2677180715524
21.097934568693
21.0744109195895
85.709406519008
84.7943464014282
20.540603557778
20.8484324364536
93.7590721831232
94.9468504023761
20.9088650578834
21.0278805415435
98.8468270087946
82.0082831328822
21.5266585177212
23.339299144005
75.4409718888685
68.3887097239204
20.7716137758455
20.0126815104076
65.6422376127718
60.9897571543046
18.3093041126255
16.839540282778
55.1176396604396
49.3602339744283
14.0825673856264
11.4682606525544
41.400139621579
36.8780444131108
9.46493335306803
9.79627006664069
45.5421517725719
43.7688686964156
9.44806564546309
9.42810400591989
42.6952308098125
42.9411628158549
9.47977505876101
9.62257082634982
42.3305331129379
43.7511900066221
9.73779215443174
6.95377834063738
37.8528996399102
33.4002541689586
6.88081444605418
6.72233073824771
33.4566949746004
6.05923091366469
6.74139627329892
6.93176705549187
33.3621836683584
27.424996076681
6.41212882426978
6.33468215648499
23.4703885772041
2.40416608426321
1.15106614965
1.12295763122647
1.9292636173383
5.41131356740024
20.9369112494771
19.6541555899533
4.06048232895178
5.85320746852932
21.5027418778411
29.2663263221897
7.77920409363642
9.11569802193496
30.0885030545208
27.7960784552222
8.0770306532687
7.87790364362925
29.0672965591113
34.4506046817619
9.92412087674719
10.0232889145813
35.6443374186497
32.19884584025
9.2380732436068
6.6474342840626
6.06242940240113
31.67102244795
30.6279136203899
34.2021354862888
35.4267690316495
8.06794708450357
8.9313542785078
4.00972895984138
3.56719071398364
5.1550955687069
5.7924289327892
2.23936373348599
2.13929043406451
2.21880016607447
2.32102835740098
1.56227974381093
1.50461776819398
1.5070517104507
1.56254318595996
1.33584598361658
1.31214485390696
1.38303262506258
1.41896033025517
1.41520906300016
1.37946885645526
1.45829895207575
1.51377074040634
1.46708513255853
1.40976906269394
1.44622744259513
1.50128518412326
1.54916320338396
1.49682771154527
1.4803568336938
1.53148487605748
1.54185872741382
1.49034962293093
1.44511348392389
1.49551579103297
1.54682104537834
1.49618716500846
1.4717379271666
1.52711015474944
1.50746044972597
1.46056042242016
1.46313180518361
1.51027393967654
1.52771764488904
1.48263266306523
1.46531082579303
1.51829029770828
1.5042619507809
1.45521844542681
1.45510947827786
1.50264899647539
1.53812465199192
1.49030417395059
1.69745241057493
1.76839854696624
1.78394025763176
1.71422159114355
1.73996433118784
1.82034267055658
1.80954354912972
1.74102315847917
2.5322366819184
2.71405583027371
2.85875357384191
2.67949909158337
3.10332321672158
3.17252805590828
3.30348678995029
3.43937046655943
3.54291682377441
3.37438165267094
5.30464323278541
5.61530505997421
5.61336514973447
5.29258824514852
6.6891819034987
6.77184920417256
9.30618933043409
8.85088647074155
14.7968125481483
15.2993915536988
25.1340129306338
105.922370380436
82.633781520864
20.8225845128118
20.8242704463168
83.4560691784313
107.666695851911
24.9173113184059
15.2690430104455
14.6564136286418
14.7737000891436
15.4059130087386
25.0593236492785
111.689992610591
86.7489324407628
21.0527088978338
20.85183743532
92.8504444693579
87.6947480873391
20.4203510254597
21.2752592245928
99.2584870393179
106.533447943792
22.4458337177111
21.5973038923827
107.015918039253
99.6120751381538
27.9350898091685
31.5588339351478
101.205492645297
88.8089174300289
26.9097818494727
26.2446176958256
86.5231122536493
77.5301659975661
22.6367033196658
17.0682308024952
63.9092809655769
77.3833600801255
19.14304472087
15.0343440924348
53.5983022716247
55.2489991020023
13.5430957877542
12.3399449991429
51.4946885087069
47.951639492785
10.6423764883279
9.89962041183532
46.129533538437
43.982191537827
9.68971572550503
9.62693992409749
42.4256557864958
41.6850804550268
9.58475577870902
6.92820453344606
36.1005160659578
36.5504934026276
6.90380699667367
6.78499080992427
32.6801064613052
33.1559734897717
7.37000484805225
9.26135387240295
31.6599418525608
36.7887605376425
9.90395821036841
8.88505546721846
36.7276743455967
37.7342005531947
10.0621879999901
7.93082014565826
28.8086174187301
21.0714667665824
4.92801913726853
5.71011146724093
21.5428367721427
19.3482289679769
3.99017311690668
3.51103798509968
18.4823477375344
25.9555399825817
6.31286964086715
5.73704634612213
21.8900876718712
27.8879873658612
8.48285065782008
5.79249497633389
26.6157087030943
25.7940329603509
6.31555345815139
7.01525187771243
30.0667942914251
34.8950508959622
9.25703663339381
9.27087564924644
34.9073604238208
30.4328817175772
8.29803943067185
8.70152091298439
31.7650947390337
37.730222698501
10.7839760384207
11.7790823287506
39.9674897921577
37.9861090929974
10.9485313571976
12.8383248067525
48.6173156668067
42.8803313522844
44.6055208147877
10.5317400592209
11.612199409814
14.390628476147
14.0414997265309
58.5804780822641
53.6983861377815
59.2434274030673
15.0331326183567
16.2757070254488
66.6226566121269
64.471951759889
77.3594642874881
19.4732997905654
17.703825370355
14.9835873549763
14.5326617852803
13.2887672219829
14.4004443348667
6.01138482908776
5.42156110959558
5.40253306207878
6.01783173997388
2.36240679746636
2.24102065900703
2.3662143026433
2.49984451748892
2.41764325725652
2.30787812028658
1.58901191021064
1.66050110452948
1.64639110574928
1.58123460867956
1.67448174729545
1.75359088937415
1.528571733134
1.47349188846988
1.52557964938926
1.5757500523031
1.64804567360942
1.60080050050884
1.57576719161026
1.62858358292484
1.63154712712655
1.5795335101539
1.52332742885785
1.57654614767417
1.65757013260777
1.60106026631834
1.55963585547659
1.61489011593347
1.58649704683227
1.5353956356393
1.54517643886439
1.59802008357637
1.65594016642557
1.59751915733114
1.54282959478849
1.59650607966402
1.56963213305989
1.51163888219471
1.49799066815622
1.54811548772629
1.54937869242448
1.50114993809854
1.52367524690131
1.56901085392398
1.55748102187743
1.50333990747788
1.49051870180776
1.54356812575696
1.58055601990374
1.52303705121896
1.5230686396816
1.57274395423348
1.80443745742536
1.72758672271204
1.75122330716768
1.825425847144
1.8644052234623
1.77694951802562
1.77898227602165
1.85374164689293
2.73946416847203
2.55548922553858
2.73751087631478
2.91966534282886
3.24618676157931
3.16600989906124
3.23208845441051
3.31821520870623
3.43409845136914
3.6209248557512
3.70208195760529
3.50663579588
5.64994194389063
5.99030206799506
5.95877782537508
5.592750978414
6.87898688701778
6.93952486912314
9.55032047673761
9.08692413996294
9.43865760447435
9.87548078696699
10.2650158879347
9.86451183806497
15.000941663385
15.65295477339
25.3692756534281
117.270105704838
91.2158793633024
21.4495918720516
21.4231170619244
98.8835797664644
114.92453763331
23.6307109886425
21.8889008294506
115.600303924204
115.724794674635
28.892198039857
36.5528457662766
149.084224028908
151.296161956013
38.077823471286
39.0773417962293
135.717964991715
117.777292170846
32.9875605027211
31.8459207441038
115.967163497161
121.708229669441
31.5837888029745
26.8855029746468
109.640522264787
108.378654474669
27.3754178755066
20.5817069081719
79.2490750075211
56.1073125490925
16.612979568574
15.1672091611188
58.2031372636863
53.6689943989433
12.3508131026509
11.1865683681772
51.0239418927443
48.5033320491993
10.3995722865877
8.81379633497924
42.6694916097435
40.9690908128877
8.19681925180617
7.78310613771245
39.9095299704746
37.9284773472416
7.59516963123836
9.18504957838035
38.010051014972
44.3605192210367
10.6531498750542
10.7416006655484
46.8553062452171
46.83182071312
10.747655303969
11.1386766678
48.1449196955949
49.936009373814
11.4994393117043
9.66646126431449
38.2815603331273
39.8713361030924
11.1728620016895
9.41631715684377
30.610998856538
23.3428476465727
6.07377391470743
7.47556098168705
25.7975786285209
33.8664839139468
11.0626364573589
10.1265617049636
31.5688369097931
27.4747796498939
7.20363493351332
9.34852552051091
35.3429600753723
44.8072263705106
10.3980222631032
10.0181653699718
44.231649470506
44.3872864063527
10.1003572295841
10.1141944035283
40.173656589605
35.5523493384448
7.3734505582612
7.11863617759247
33.4614932633024
40.475131862847
10.3346567497885
10.1861653263104
44.6234365557314
35.7155124888823
9.3048241547948
8.85656530108296
32.3131948244817
35.7550240974861
10.3507064519258
14.8256880240291
46.5975485725992
51.2039909468017
15.3867158475255
14.8734278644047
60.184526241493
67.9612871335006
17.3408727058867
18.3544630291934
75.3110417850779
79.0974818185468
18.5810288875254
17.3200306987916
71.7594620748512
74.7354483238869
91.0982412127091
19.7626893370494
19.9296510548009
14.021750943979
13.780406427642
5.71218493039158
6.32342668226155
6.15073472970515
5.58047633044616
5.7680402143701
6.25465918891038
2.66657078392785
2.52056386756225
2.41449560396778
2.52464275099762
1.78715434992005
1.69903489832562
1.76421947709117
1.8444832148624
1.93594253303051
1.86307335507248
1.84319385555435
1.91118096475952
1.87319816499987
1.81501837428563
1.63123542279161
1.67735331452577
1.8123762675882
1.75759195922696
1.71252305308369
1.75882226408715
1.7359925453167
1.67829201750358
1.66702271507133
1.7251398401777
1.85342095509944
1.78620513661622
1.69469506234385
1.7590607551833
1.69642037425426
1.63691940905427
1.59551233163384
1.65010432376126
1.72881127658642
1.67241203999965
1.64874554115925
1.72068544226117
1.64586157259502
1.58703486945073
1.54816533154154
1.61130524016002
1.58474151499698
1.53095033746318
1.53356629145852
1.58503790050678
1.60801803791897
1.56022907582589
1.5381265428733
1.59527129009882
1.6311264128454
1.57155444717775
1.55431447021102
1.61490367048907
1.60633707334018
1.55427368985359
1.75767625047205
1.83907230928307
1.86923315719254
1.78910566009334
1.81515662039408
1.9091046464624
1.90002504271821
1.81894364753419
2.58250602233562
2.76752293197261
2.98251978111327
2.79904238244589
2.86162037546421
3.04641217012005
3.40007723160128
3.30204752259637
3.37418209210325
3.47901663023133
3.57357613813448
3.78447615770184
3.87214817461033
3.65099549985171
5.8844295091927
6.26286565317302
6.22291717600996
5.81781944367818
7.1210784401106
7.13352249722014
7.32541454001291
7.40471816874404
7.71158387926702
7.53938693026777
10.7026916940151
10.34348662703
15.3091172683462
15.9869824416122
25.8149190169299
123.565276988934
96.0999726560094
21.9904546383495
21.9215411850997
105.406967265971
123.810688478983
24.5489216384414
22.2850132983656
122.766932044104
121.853013787274
28.246879167129
35.2808039019506
154.092320676564
147.779052030464
37.2897265049955
32.687434722541
119.027644802985
126.578127906287
32.5334408283082
31.5151560230462
126.724488538692
118.355135170278
31.3405573524053
31.6805361833186
119.728119051659
126.81904841066
32.748859169186
27.1176217050309
112.620489163576
124.75531385461
29.7460396988715
24.5449914623744
91.4629000068564
59.360987307272
19.0026975343925
17.5647814952717
61.4684191037324
56.4762172467211
14.0449577698211
12.2562717047328
49.6543396434324
47.0465990112489
10.7911292839475
9.6553072174854
44.719700550984
52.5060622446059
10.9620236729754
10.3274176759125
50.1598753136263
48.318232927772
10.1023545941869
10.0785669834912
47.4448627820038
9.66082587981246
9.02129515921007
9.1031354796576
5.85288662293447
2.51446621761895
2.38581518854031
6.84257926985009
10.896676454549
41.3617613598824
50.8142652466895
11.8743979394654
11.3815336485799
48.5634265192637
46.2314080496878
10.7832683907467
11.1641313402112
46.0215063044728
38.7590130143676
9.33422282988753
12.183027960378
44.319914761914
42.7763819728952
11.1153691528235
10.4771291677524
43.0398245105975
44.1914455039858
10.2554402540805
7.49875864786745
39.0506116992557
37.8060884247234
7.85119605639163
8.45859165398097
37.6614653735952
44.5996390296737
10.4994125147871
10.0817032190977
44.2597458001747
44.7381362511782
9.87803854132681
9.74577942084055
4.63166555069168
8.36581835054176
34.8434905999464
34.3528943204623
9.44416363165198
8.72362659773552
9.15238874564833
5.52680396886221
9.01085059975575
36.0196679885095
37.5802303071792
10.5347343066446
9.13201074882078
9.90576149140375
11.8773359037394
48.148500288667
40.5244314689307
10.3113446577482
13.4677612645432
46.9210490818197
51.9934771680695
16.2611654419635
17.2952620083445
46.7463342666217
47.1011677181298
18.5200668351646
19.1740977743366
46.7199190107866
46.7828700805767
19.802028822497
21.9249373324436
49.1006466045671
53.1107472474748
21.9083436997651
23.6820677199029
61.9202201088432
76.5009842967963
25.7203860367685
28.9938041298535
97.1142687644564
102.1258408375
29.9444663209916
28.926416071518
93.3374402073248
104.490470340583
121.798509128197
37.5908292002649
34.0915066661024
21.3455929408672
21.3978238987902
15.8757764679963
14.7356683250469
10.0174904496387
9.65725800575455
8.80101651220343
9.4331129754372
7.92644866973126
7.36197262744127
5.62614063373177
6.01382924065731
4.41862933848563
4.2357884333971
4.22662028554633
4.39580866687836
4.32672554422297
4.15096150131162
3.99910348492552
4.1826622250932
4.11999912039664
3.90616123727555
4.09623476116126
4.31870258496315
4.50492549734324
4.25088816856321
4.20282771511918
4.44871751934465
4.38528285763058
4.1227867971671
3.9512371696381
4.18389205863287
3.83359143428989
3.6291776949575
3.24051786934456
3.414220144527
2.90031614662617
2.75925500624547
2.4391465262994
2.55147233932101
2.25409631569412
2.16886329825449
2.01555961724751
2.11944228780499
1.91817824436218
1.8355805631421
1.72917381702393
1.81588834200927
1.730732146077
1.66666700779282
1.63086739141537
1.6987330711058
1.70537063784447
1.64575843315905
1.62551470576214
1.6929724116952
1.67470468886747
1.60548888051441
1.61004506708866
1.66864318755777
1.89826179800067
1.81216951886258
1.86213032562876
1.95528585081327
1.99830378944563
1.89288638379087
1.90303972824246
1.99588143441121
2.82194443787787
2.63708738916526
2.92467469669492
3.10978182326888
3.17216088589589
2.98645944427672
3.44970429605804
3.56717113422769
3.6510253821101
3.52580284896758
3.96222187031646
3.72603923744331
3.8065236647032
4.05726239483287
6.4994545420756
6.10087067724794
6.02771166027559
6.45270843749949
6.70616745391846
6.30652830710047
6.21893988932094
6.65148234423244
6.89043953526287
6.48672878725328
6.37694480843079
6.8316647184327
7.77603991313939
8.01509285453402
10.8556155401574
11.1479067462286
16.4139906354751
15.7099921857473
26.1197159453849
28.9304789644846
136.492832154048
108.045390309291
114.349821046263
23.4853167411785
25.1115667984558
133.361447772424
130.562376107111
22.7657432566718
27.9586465451124
129.320036094464
162.734963027679
34.9846617520224
36.9565637564649
153.054705372295
121.556722571457
33.1744248415767
33.9374876145898
129.343721229409
142.998494976141
36.8320247791025
37.2846249441986
139.489360477792
163.403048960609
47.6225881217
32.7458199021213
147.549602671258
147.207815730587
35.8157510147659
36.2616036277061
114.689604887909
97.6108012549311
27.3271082196726
26.0547421720159
82.1336088272853
60.1911362449077
22.628259480457
20.2932742798933
64.2788252004922
59.4539152078245
16.2902848207826
14.0155089061754
52.6198872037666
61.9195461737731
15.1779065537013
13.3758874549577
58.3533771799081
55.2478274665144
11.9608507702519
12.2126588016937
52.0955020099622
54.6184038018399
12.944973813287
11.214848169718
41.1540525345997
43.7570052932283
13.0831792562715
12.8131658697614
36.0087804602926