/*--------------------------------*- C++ -*----------------------------------*\
| =========                 |                                                 |
| \\      /  F ield         | OpenFOAM: The Open Source CFD Toolbox           |
|  \\    /   O peration     | Version:  2312                                  |
|   \\  /    A nd           | Website:  www.openfoam.com                      |
|    \\/     M anipulation  |                                                 |
\*---------------------------------------------------------------------------*/
FoamFile
{
    version     2.0;
    format      ascii;
    arch        "LSB;label=32;scalar=64";
    class       volScalarField;
    location    "1600";
    object      p;
}
// * * * * * * * * * * * * * * * * * * * * * * * * * * * * * * * * * * * * * //

dimensions      [0 2 -2 0 0 0 0];

internalField   nonuniform List<scalar> 
209453
(
83646.8975953227
83662.0594438916
83683.7450247636
83660.8780952772
83646.4102911841
83634.9247451648
83624.9884450788
83612.7117639931
83617.5635181473
83625.6279427723
83625.0839753079
83622.3684942263
83622.372881278
83633.0644423045
83632.5905611674
83641.2485642829
83645.0945671424
83643.013551827
83642.5292728234
83655.3858777845
83663.7596167018
83669.7760542927
83655.3024080885
83645.8119772735
83646.0525055941
83656.0753581351
83655.6501869087
83659.0617872511
83665.6646318644
83664.0369122676
83659.2452857456
83662.6643778341
83663.9424033715
83662.9769692768
83661.7693384967
83660.1362296223
83665.7968770133
83672.7108116891
83660.2564217181
83659.5743050801
83673.2355655625
83660.3665166687
83655.1551300676
83660.4643666854
83679.7578841035
83621.5111183461
83629.1316856719
83604.22049079
83576.3371662139
83583.8173709032
83600.2073733366
83597.013372645
83572.6993062291
83662.3086640119
83670.6733491528
83630.4642615515
83620.5944148343
83614.5905174534
83614.825521045
83615.3368118228
83614.9957832961
83613.9898668334
83615.3725080517
83610.0006803187
83609.9148143216
83603.9944597466
83602.4211931835
83584.7047252823
83600.1250533102
83617.5457788389
83613.5589099496
83632.2932580021
83669.2320654023
83663.8339815948
83643.6909254609
83622.7863929964
83626.6503652733
83602.9935081353
83591.7084526422
83598.9012917376
83605.3908387991
83609.7936860545
83608.7396883459
83609.5020245846
83611.508088678
83612.2584869301
83610.7980052367
83613.3582336379
83613.9307633047
83616.3531247136
83616.4257482531
83613.2036068774
83613.6962573283
83616.5294969105
83616.8129045554
83626.0864101344
83625.0608899307
83635.0855115053
83634.6639705646
83645.6386062462
83646.6567446425
83657.4368917441
83656.5471807276
83668.6386053226
83668.9429595659
83665.2909266495
83665.1272300543
83677.5049155991
83677.6565886125
83671.5608334893
83670.9101851782
83668.9804361641
83671.3618175004
83671.9501024446
83669.5030683732
83658.2838533842
83667.9837497281
83669.2186499088
83673.25616154
83690.8663344759
83676.3490270222
83676.1641575439
83684.9673912882
83683.1661314543
83679.3020785851
83679.5518511228
83681.0242857084
83683.5222048766
83683.2700521709
83681.4599770619
83681.2800666331
83679.7365409589
83679.7799534041
83677.2748918879
83675.4574509584
83673.2469046602
83672.8061794963
83661.2735848025
83661.54800666
83654.5859449706
83653.4226548961
83648.1060795553
83649.0784805026
83647.3300600196
83646.5147900481
83648.932426983
83656.332757024
83658.1433469303
83636.5686281895
83632.9955943246
83643.0675319171
83608.4372617112
83612.4166455612
83605.0417447502
83602.2297968068
83591.0553859346
83600.1859011154
83610.9237653849
83619.4627165932
83639.5856597015
83613.9032564423
83606.3316180241
83624.3190968789
83611.1839253892
83607.5622322272
83609.0272544005
83610.1774512691
83613.4994062643
83611.4594392832
83605.3616012718
83603.3548708454
83605.6374634865
83605.099996154
83605.2145333247
83603.5754959332
83604.7106404232
83604.736232119
83607.1679253048
83615.891799583
83601.6420766853
83599.8493264227
83610.2058922862
83604.3834962892
83602.048805244
83602.5099046046
83603.1636704915
83604.8978240682
83604.5914317918
83607.2108645215
83607.342093906
83609.57609545
83609.6296604854
83610.250626327
83610.2338511244
83610.6926465151
83610.5881896083
83607.5935768114
83607.8074033537
83607.9713977577
83607.7660801068
83608.1153594786
83608.3090903205
83609.0340589962
83608.9181580647
83610.028913198
83610.3206075462
83610.4280048582
83610.2197097903
83616.1151874434
83616.0007576846
83625.4759936393
83626.2152126875
83633.2824674849
83633.5685780719
83634.3792088406
83634.0146512114
83644.0573839748
83644.6590406507
83656.6569679641
83656.0205835068
83670.6074316286
83670.8554478415
83688.4854543529
83688.1448949301
83682.3247423052
83683.0197020925
83694.2846922912
83692.8391461058
83690.2743566215
83691.4397819797
83685.9716918979
83686.2019716151
83684.6847622416
83683.9785158526
83687.2072864212
83687.0872062467
83694.4741336485
83694.6509506829
83690.2357023768
83689.256900339
83686.2573799884
83688.8883212678
83686.8198568496
83680.0461765541
83691.9783393268
83693.5858221695
83691.67355366
83692.2282950091
83691.5218802386
83686.5468484276
83671.0455006381
83670.0483051983
83663.1141014447
83663.2602005803
83655.0085697623
83655.6787540153
83648.1188231162
83646.7474057907
83642.7584784349
83644.0936964923
83640.1428150304
83639.8742929594
83638.268144825
83638.7192167606
83637.1205116805
83634.0342979579
83627.5346099773
83629.4804262863
83620.2254162942
83620.8263125278
83608.8583680453
83599.7311706926
83604.3796185792
83606.9225156221
83605.2380730681
83603.6980973304
83605.0547404189
83604.4557230463
83603.5041309027
83603.3307975405
83602.3553918108
83601.7858512101
83598.634517756
83600.4628819637
83602.6715904953
83594.6274260002
83594.5585194567
83598.5459034298
83597.898432682
83597.3446161125
83599.8787358304
83599.8485857842
83602.1358910383
83602.1337918833
83604.5503138824
83604.4455272537
83606.4748574863
83606.7233765547
83603.8870747928
83603.7315058982
83604.9690639625
83605.1943668831
83605.3745273133
83605.1235093325
83605.4370780756
83605.7138456972
83607.5418816856
83607.2556694682
83612.5076809995
83612.3976199479
83621.9558637219
83622.8259725595
83629.5374881733
83629.7960598515
83632.2786685594
83632.0166333574
83642.7278905877
83643.263954433
83644.2456784219
83643.7127225043
83656.7827248053
83657.4742557148
83674.0115760474
83673.7771064421
83695.006524039
83695.0879613838
83713.2348782669
83712.3592306004
83707.762799565
83708.6929957391
83702.7491388643
83701.9236288698
83698.1225419958
83698.9991489833
83709.8949457762
83709.7797576363
83704.5089025751
83704.6240972842
83700.0661763592
83699.4515794309
83695.8260886064
83696.5299065601
83705.4081103661
83704.7901876886
83701.9677684075
83702.5246216751
83698.699966786
83696.3718286465
83694.0617200233
83697.5961644257
83705.6303309187
83706.1020124518
83705.2891223509
83705.537672123
83696.1267411539
83700.8847137715
83704.8574374859
83705.5830158513
83717.165232771
83711.0796165017
83709.0731232749
83709.665889351
83712.9354621488
83711.5960168891
83715.7564296201
83715.3805323199
83708.1857002303
83711.2013730987
83708.7535713272
83701.5859069978
83703.9257915324
83708.9815221976
83706.847390268
83705.2243837591
83702.5493598601
83699.5101792011
83702.7160340439
83691.8079275532
83708.3928417855
83702.0809641373
83686.7512882509
83676.6617505689
83669.3747052551
83675.4660570835
83658.2451040575
83655.8313766098
83655.8223409286
83655.6715260102
83651.2075725837
83651.694209557
83639.5862172644
83638.9603966573
83637.6228025869
83639.3527011719
83638.012807051
83636.197841057
83634.2559450847
83633.4741111875
83637.4898597461
83631.8231310477
83631.9701788252
83636.4994620044
83628.5832372477
83627.8026165617
83621.6272346523
83605.9005063879
83612.3395168733
83615.2596640484
83610.7536510528
83600.1315553419
83604.4437172194
83606.8609377034
83604.4353561355
83605.5653228855
83600.6694392646
83600.2316658657
83602.5300990098
83603.4732074269
83599.5812058545
83599.5234720552
83599.4185266182
83599.1060069898
83597.0743446984
83597.2766644583
83594.8648708005
83591.218716334
83594.6524376921
83595.2135007841
83597.3027755475
83597.2217300642
83599.2260247583
83599.2930292375
83601.5793367436
83601.6017674932
83598.3604764346
83598.7896420775
83601.7532812254
83601.4497673569
83602.7747795208
83602.913352839
83603.2343091545
83603.173602922
83603.809934065
83603.3477138374
83602.2161559978
83603.3960809339
83597.9425082174
83598.3680819083
83601.6947600133
83601.2694258114
83601.4616960051
83602.1387153625
83605.8503467569
83605.9543401153
83616.1779522748
83615.6926679016
83621.511222091
83621.1107504174
83626.3013960471
83626.5444081542
83636.5573726079
83635.8517940621
83639.8873819937
83640.4795092836
83654.668732118
83653.9711546578
83656.552543319
83657.2546467105
83675.4255205155
83675.2371205177
83699.6953655306
83699.5426744963
83723.8905924361
83723.3200073415
83718.8120017649
83719.6949334
83737.1811240015
83737.1683788501
83729.8636192284
83729.8745914573
83722.5514832044
83722.4619171563
83715.9097394379
83715.9734666646
83729.1938621555
83729.5813055191
83721.8761624421
83721.4567012992
83716.1502815226
83716.323574246
83710.0940362926
83710.2286398479
83720.7168838102
83720.7353866234
83714.583841877
83714.7539577177
83710.4490083013
83710.4569448762
83711.4348135784
83707.7442035716
83699.0589749566
83713.2608049154
83705.4879857202
83690.8989370776
83678.5230735592
83662.6780630388
83638.1600681141
83608.7406897012
83581.9177270309
83552.5465183898
83535.2144487713
83536.9018511456
83567.4411843
83568.6024173222
83585.2341210812
83582.4645452023
83594.8257442477
83595.1919108124
83589.5085554746
83587.7774446971
83595.1974781728
83595.9924200069
83592.4963071733
83591.7169839118
83597.5221409293
83597.0017336293
83595.2054173414
83596.0695870698
83596.0837517917
83595.6446812685
83591.7838643832
83592.6534500558
83591.6602607089
83586.2876535209
83588.4302875666
83592.07922391
83593.0977259753
83594.1243405924
83595.8184216426
83586.6053802697
83592.5996984691
83593.8779022487
83596.556101031
83596.3364057756
83594.9571855693
83595.1518076463
83595.2103390252
83594.9780026913
83595.9277389149
83595.5892546585
83595.0042709305
83594.1344482629
83592.8703135047
83589.996425546
83593.2624157255
83592.0543488031
83590.4680022927
83588.9750275651
83601.4238153114
83596.1004956493
83593.5240879047
83596.9432348062
83598.0823314593
83600.2145526063
83598.1539412746
83602.1596974914
83602.8193337848
83613.7483470347
83645.3980927505
83642.6946973497
83605.9580507901
83583.1001172353
83556.9778110796
83569.4264230989
83586.7744387756
83590.7920725695
83585.9572656389
83603.3218003361
83599.5539792388
83607.6236356097
83611.3389378477
83641.5782585407
83622.4062498295
83613.1074669608
83647.1398848392
83589.8447164374
83592.8361574603
83585.1765281539
83579.1424979316
83570.490978002
83585.8612033231
83584.7948612574
83560.2422225895
83573.5879583601
83586.3430312078
83594.07831032
83590.4087888494
83595.276429584
83596.9662060292
83598.193472797
83595.7990882918
83599.6116363172
83600.6090236036
83599.8903688
83599.6105117857
83596.3618931655
83597.5245325333
83595.7313330089
83594.8644044348
83571.9604757913
83586.3523660576
83593.8495358777
83603.5101852551
83602.5323892254
83588.3053433547
83595.33540799
83607.3338239835
83615.3225564272
83628.0044256687
83615.053265701
83614.0662648774
83615.0146347159
83613.3633052278
83609.3288021919
83610.3315185764
83616.8422659106
83616.2049325996
83623.6551424222
83625.0514952309
83629.9164735166
83628.8485067764
83639.5887513869
83640.6151407397
83649.8965365105
83649.2753655819
83667.0693585854
83667.4137265814
83673.357032221
83673.0409969577
83699.1641478811
83699.0290545157
83728.7829833383
83728.5099319605
83726.467539989
83726.9230169637
83749.4838828859
83749.9500600208
83744.6739661041
83744.4093145144
83764.9823737745
83765.8213309417
83756.0472578101
83755.2129667356
83746.4720573016
83747.074556029
83737.5303407765
83736.9844195788
83745.7700779444
83746.8583897766
83752.2086047087
83752.3594591244
83747.1723723403
83747.0547853936
83741.8829568153
83742.057564213
83737.3648285332
83737.1877467698
83733.7378476174
83733.8595120625
83730.5977604968
83730.4986982546
83727.7032135108
83727.8215916143
83723.6085934764
83723.7807675018
83723.659082621
83723.070690294
83726.9971565409
83727.6967680228
83729.5917043127
83728.6068601039
83732.2596787619
83733.2802721721
83736.6876895343
83735.5710390637
83742.4536631407
83743.3182286051
83747.7375429011
83745.861843544
83761.3574334353
83761.1367997672
83758.0801208706
83756.5320921862
83755.1155367841
83752.2546510449
83744.8388197564
83740.4050816951
83733.8363609685
83719.0686455072
83697.6043440082
83670.4903386148
83633.3657375161
83591.0988783821
83561.1029849685
83544.191017316
83527.7182667131
83512.2918231742
83509.129913956
83551.2966266136
83554.5193633742
83577.0984381957
83574.4211198575
83567.537160379
83569.2937297456
83584.3035385704
83582.6517829733
83579.8719466907
83580.5610126054
83589.9005698243
83589.9531042289
83588.5296687891
83588.8841959068
83589.1382331821
83587.4469569103
83585.8687411434
83589.7468274656
83592.1205896191
83589.6130252505
83587.0718462028
83589.5021924262
83591.6136419954
83592.3066145343
83585.8502287775
83593.2849302955
83603.9011696526
83633.2811596258
83584.4187500692
83596.9583119412
83600.1798517517
83574.9714573073
83651.2200082342
83627.6243162534
83626.2917637975
83646.8593328048
83634.248688687
83629.0334688997
83622.2837673115
83621.7958068277
83617.2992378216
83618.386810299
83622.5983518871
83621.5313070148
83632.0860687555
83633.0232236679
83640.3351645497
83639.6045089874
83653.3503368248
83654.0390971791
83672.2683190387
83672.4337978666
83691.7034596353
83691.4527669996
83725.4691473349
83725.9549755322
83728.0821185778
83728.0333977163
83754.11010481
83755.289318449
83754.6187176809
83753.7619171662
83778.8296366524
83780.2241792321
83773.488017653
83772.352273835
83787.8059795225
83789.0404926478
83797.1933004612
83797.4288112613
83791.7296858312
83791.5299930806
83785.1629948006
83785.445472752
83779.0919709664
83778.7794349472
83774.675835024
83774.878528934
83768.7886898631
83768.646486805
83762.348166776
83762.5766051253
83756.6585888977
83756.4556779497
83765.4485967756
83765.6690207183
83760.8026488687
83760.6315801717
83754.5699901109
83754.7813445382
83750.0018520006
83749.7951771585
83744.3150688374
83744.6246139565
83740.6092358073
83740.36070477
83735.8764914759
83736.173603372
83732.5954871663
83732.4954434215
83729.9453550192
83729.7527624981
83733.3020927967
83733.4820649071
83729.4910261865
83729.404076822
83723.1270316065
83723.2788728662
83720.5040903177
83721.1797034173
83719.5686098644
83718.5793575761
83718.0008643559
83718.388684567
83716.7286114485
83719.6440521913
83725.350160895
83723.2837656172
83717.1681129291
83717.0661531918
83700.3760029288
83707.654827135
83720.136388756
83720.5915667879
83717.03894647
83715.3448426923
83703.6891319259
83706.8091358007
83698.6768515966
83694.8937967433
83681.2153519476
83687.2476873973
83672.030383406
83669.0011159813
83652.6172785022
83650.9272922786
83635.4231043908
83634.2207579595
83638.4478729925
83637.174622079
83639.8005251673
83639.9111690749
83622.3889686726
83622.3628281353
83624.7958417381
83624.8941253002
83625.0893747434
83625.1319197153
83626.7286390882
83626.4114551838
83620.9016957165
83623.1820935143
83635.1644459046
83628.3741108445
83623.0460746148
83632.9688817069
83617.2724095937
83614.3852842011
83623.430350081
83624.9540238742
83620.3160623674
83614.2711046036
83609.745077336
83620.881984497
83590.2563436834
83595.3270990674
83604.0247822141
83607.2421110139
83601.7330978247
83595.9724731038
83590.0954439181
83584.9921654864
83579.4517321631
83579.846919642
83579.1143724965
83582.7896771508
83585.0436561263
83575.9993258879
83587.6362881996
83585.6824766619
83590.7660104235
83596.2660611064
83595.2621462323
83595.4497429409
83600.4366362446
83597.2158492649
83612.7491288965
83610.0870256594
83616.6787049541
83630.4732461388
83632.0521886191
83617.7491931405
83617.8231248675
83618.8571003319
83622.4127895298
83623.7197629965
83611.9116630384
83612.9623523439
83612.8359983672
83610.1221550616
83622.2506322374
83623.829051947
83623.0759667921
83621.8786161053
83648.8388721618
83648.8460149174
83667.3060837256
83667.8140472641
83684.3813393712
83683.4315211676
83703.1787973586
83703.9879429111
83715.6227978812
83714.8306462961
83739.0177466088
83740.9777111923
83751.7504639231
83750.2788018824
83775.811944674
83777.627642907
83781.999694285
83780.2815248532
83801.2575453094
83802.7210767742
83811.4639054081
83811.6065436844
83809.3898758156
83809.1601630385
83804.7963079878
83805.1149537096
83800.3424456062
83799.9573090455
83812.1382084626
83812.1004121072
83808.4419144888
83808.5295548129
83801.9191079013
83801.8951580936
83796.4737997781
83796.4172690991
83789.4436244125
83789.6032026793
83784.6762323644
83784.5737738719
83777.6245565976
83777.7450622227
83772.2270846101
83772.035213412
83780.2814829332
83780.3971892482
83773.7445909458
83773.4705133669
83768.2156086802
83768.4118526617
83762.2332764906
83761.9081749428
83756.7270841052
83756.9393883044
83751.3117403099
83750.9702789415
83746.3681485542
83746.688263762
83741.9593987381
83741.5815021081
83737.4706825378
83737.4692169882
83742.4449850597
83742.4027068787
83739.202865879
83739.0638435899
83743.1730334149
83743.2683060989
83739.5120560718
83739.5867465824
83733.7982759155
83733.2963197472
83728.8748632413
83730.1944235133
83729.1568620906
83728.3412139073
83728.2717277168
83727.8644999773
83734.6157185094
83733.4956339208
83734.7455700506
83736.2340913365
83738.7147469076
83737.571455759
83745.2095140826
83746.2171405597
83742.69649755
83740.6345035346
83739.1255846489
83741.0546077511
83736.2445959413
83735.8842242639
83729.7421272685
83729.4473162866
83724.7284747379
83724.924783197
83733.4261816716
83731.9603391999
83729.2780415353
83734.0508922912
83727.2934332994
83722.9997726931
83712.3837055646
83715.81931346
83702.5084151702
83698.2992016788
83684.9481381373
83691.5622186723
83676.4509957535
83670.3120948662
83657.4484756233
83667.2659983
83651.7828005812
83653.1304193293
83618.6670486816
83619.4512292283
83588.0780183855
83586.9414227392
83606.2067797134
83607.0597167781
83616.5536038769
83616.6924046355
83601.9747460767
83601.7583605471
83607.7806737736
83609.5698395137
83614.4034490718
83613.8980125447
83615.7227624963
83616.303308363
83605.752714989
83601.3773678646
83618.882719594
83614.9421985839
83607.449906057
83617.834911819
83580.8380837905
83595.0516283157
83580.7086405686
83574.7569928228
83561.3391906442
83558.2586453868
83538.9900593119
83545.373257411
83496.1474386352
83499.4392000326
83464.7868029613
83463.1505563391
83438.6609443667
83438.1052480789
83406.5870555747
83412.7551161752
83488.1073045651
83488.9320374221
83541.3443600762
83538.6482922914
83535.1640753169
83533.7301739202
83563.7772080743
83563.3316534506
83554.743795725
83560.076327222
83571.3911866598
83559.4290658716
83579.9977000837
83580.7412248567
83572.2885350836
83553.6720512861
83571.5528117431
83571.7917139402
83574.9246444768
83578.8953746679
83589.3459142244
83584.1061749331
83591.0896309706
83596.3899622452
83598.6909660181
83596.0349793312
83601.9364057995
83609.8911651727
83613.9772295128
83605.3114017638
83596.1759936751
83593.5698512138
83600.727527957
83604.0732975859
83607.2418340498
83604.4167654285
83595.5800788253
83598.0346321238
83593.471155751
83589.0816975943
83582.7394068757
83587.9365163366
83579.8080930024
83577.5593857638
83583.9175789861
83585.5367704309
83587.5178660427
83586.0835507965
83590.4015109426
83591.1896128893
83601.2118117163
83599.8138148391
83605.7436606639
83606.7674226005
83628.1281236344
83627.9913197241
83645.6884481567
83645.5449574731
83646.8679813896
83647.5496124995
83673.7128934026
83672.8533419445
83698.9133803887
83700.93396333
83723.2348122661
83721.1971199839
83740.2181202189
83742.166806041
83765.3683946126
83763.5468720063
83785.3066994843
83786.4931059472
83791.6133560165
83791.5345763294
83801.4566713107
83801.4195626469
83806.1689290288
83806.3967968941
83809.0059174476
83808.7462903248
83820.8118702509
83820.3098568032
83822.4123932866
83822.8464298504
83820.3511006522
83820.1057506925
83817.307702483
83817.5245748612
83826.9305728465
83826.3337829692
83821.1989668159
83821.5458402213
83817.6070593552
83817.3261901131
83810.9631197227
83811.1172016189
83805.426164101
83805.3696191953
83798.4368113757
83798.3818513601
83793.0956888785
83793.1709229333
83786.3248606085
83786.1459275641
83793.7430448409
83793.732841865
83787.6269023327
83787.6390611814
83780.9991790511
83781.0529937221
83775.3577443539
83775.3447584181
83769.0517033899
83769.179800269
83763.3792399611
83763.3268165043
83757.4339914699
83757.5834330291
83752.3144338889
83752.1343260219
83746.8459947432
83747.2297368482
83752.7578431885
83752.4814295452
83747.680693694
83747.6247988038
83753.0229295611
83752.998920648
83749.5419410601
83749.3687684628
83753.6295622219
83753.7259045403
83749.8898403941
83749.9447143208
83743.8691271499
83743.3437006906
83751.7640610371
83752.3231521366
83759.5537141989
83759.0787017931
83751.8971252383
83752.8549218796
83748.6729841851
83746.3643585032
83744.7680701772
83747.0350865858
83741.995007589
83741.0147775999
83736.4245615734
83736.2273194339
83730.6627783995
83731.3484233957
83720.5988036562
83720.8035823946
83715.0053504271
83719.5349784312
83714.962805145
83707.9580408079
83709.7221307267
83708.8631611799
83697.5130561186
83696.520282512
83682.2386813665
83691.3481969366
83669.3356651471
83670.2389709428
83671.0523888801
83669.9796157954
83652.9668649795
83663.0418990268
83638.5351444401
83635.3855751927
83596.0826364062
83597.0024438045
83558.0227746156
83559.7929152904
83534.1411539629
83531.4684401356
83563.3167793145
83564.4833013698
83587.0155554318
83586.6773688448
83562.690816654
83563.4749629492
83584.9670416469
83583.3709894394
83593.4575355772
83588.0938789981
83603.6634746525
83602.5851612537
83593.1601287367
83595.6123575633
83577.2549798233
83581.9879724465
83572.3839829377
83580.53724264
83557.435978498
83553.3859143969
83521.0777407554
83518.160220804
83495.5336754345
83493.0575916225
83471.8560848949
83476.1527375757
83420.9098294558
83423.0308255883
83379.3007034502
83380.4448346002
83354.8726078883
83345.599401528
83313.7029695213
83330.7926991557
83323.8511484897
83304.9033999436
83366.0820197499
83362.8874198035
83464.9943881653
83466.4131917088
83470.3681882471
83464.6857092716
83456.5242203385
83460.9232853561
83503.7829029022
83505.9291838759
83547.046412679
83536.5717043819
83544.4462658608
83542.5412464291
83559.3230804674
83550.9447421002
83559.3892879811
83559.0683394932
83557.7034622632
83552.9641852013
83542.0942144347
83548.6278813535
83546.3328449075
83548.1584837408
83559.8784533227
83559.4605796692
83574.4477349114
83571.6476811975
83578.3418590031
83579.7496044789
83591.7082310579
83588.0801620086
83584.4421449848
83570.6842815542
83558.3817914768
83572.2663857768
83573.6846587491
83573.8418808994
83563.4690428286
83562.3370036709
83565.4676463189
83565.4523010167
83568.2556098063
83568.70612405
83571.5196329037
83570.4727618573
83581.8440583054
83582.5639517874
83597.9621749232
83597.6988012981
83621.3818453943
83621.3128708419
83613.0921205881
83613.2128809306
83645.2598667605
83644.8510566393
83676.9340701504
83677.9575145408
83713.7018719893
83712.1582404575
83726.805875039
83726.6287869612
83722.9009436269
83722.7200664476
83744.3851335899
83744.8740880346
83761.1589108758
83760.9525164731
83777.941472857
83778.1775447012
83783.4376397135
83781.8435078067
83796.3876152682
83797.5628074878
83810.3816502196
83809.272530456
83816.32377977
83816.9636253265
83823.1574762491
83821.3016304738
83827.3190573423
83828.7525327438
83831.6574677048
83830.5910871027
83828.971239897
83829.7437365891
83834.2254177456
83833.1201136439
83831.1789239839
83832.0462508314
83827.4649979247
83826.8764440616
83823.2915669887
83823.7740921237
83817.776869582
83817.4797746708
83812.1338952043
83812.3829181163
83805.8407574058
83805.7174573397
83800.3266104525
83800.4209185009
83806.4652323001
83806.2946035837
83800.142121208
83800.221339617
83794.3390567282
83794.2693107635
83787.9649956425
83787.9714197515
83782.0398011039
83782.0517161876
83775.8076626423
83775.752356795
83769.7609898863
83769.8265683686
83763.8872406407
83763.7562949815
83758.1131836069
83758.2322953106
83764.0157169652
83763.8723755666
83757.936217428
83758.2661324009
83763.7452590316
83763.5064742326
83758.4138122938
83758.3271948133
83763.5751738861
83763.5682808609
83759.8715114599
83759.6181859942
83763.503950551
83763.6582023597
83759.3317192993
83759.1841715909
83767.254007964
83767.6273162378
83774.3531907066
83773.7634788221
83765.3768923658
83764.9896850506
83757.0913200284
83758.063282827
83753.3586666629
83750.9782940796
83749.1568769925
83751.549992223
83746.2465810613
83744.776308183
83739.2071320577
83739.7358793473
83733.9178456207
83733.9376338039
83726.3504640927
83725.1329556801
83716.4151682784
83718.2014250754
83706.1353745618
83706.6782954355
83694.528642755
83692.28420785
83696.8118347152
83695.0936576527
83683.340706463
83683.7959264896
83681.9476535261
83682.8658543186
83679.9952785292
83679.1259210746
83681.0511004789
83678.504051107
83662.9508401097
83668.5982028429
83645.5795944305
83650.5315589707
83614.1212500213
83611.6317248258
83564.95061108
83563.5756830163
83517.7956727889
83521.4483522552
83494.3536805168
83489.5827588998
83454.137841315
83458.5098823155
83501.2154152767
83499.2252413345
83534.6652235809
83535.6207583946
83508.7593387621
83507.6536445131
83536.9292238056
83537.5409020623
83567.6277898212
83564.4525694974
83581.5908857515
83586.8975441228
83575.3098741563
83561.4571055889
83532.5630259885
83488.6074110101
83443.2317809273
83391.1948761829
83347.3492560589
83324.016255503
83322.0632089014
83305.6852096275
83303.4280459077
83360.0548156509
83357.8978248351
83419.9920556017
83417.6541572955
83407.584073529
83406.4949068372
83399.6390409475
83400.5959766821
83393.4478723221
83392.378317579
83453.0744302927
83454.9667687137
83503.3874789183
83503.8606507571
83542.8868939814
83537.4784995187
83536.9150652351
83537.8899675632
83506.8361119362
83504.2676665308
83457.6197341873
83456.6636252017
83454.1761721992
83455.9481903362
83500.8328400517
83502.0380031738
83541.1435300668
83533.9109253217
83534.1996149625
83535.743832358
83510.699174971
83516.8659388412
83537.0094729579
83537.8644464097
83505.9979249624
83466.7091866657
83468.3837135355
83429.7869175729
83436.1291644968
83370.5672932868
83373.3820519352
83416.2650189376
83353.5781384532
83347.4738826877
83347.9278916993
83333.2041070286
83331.4971886282
83315.5042445319
83317.9057730145
83307.948300566
83306.869018077
83316.0367812266
83316.435470813
83313.9978229038
83311.0340546547
83310.0409883062
83315.8567932797
83311.0738715001
83307.9738014033
83307.3770618898
83313.1930337084
83287.7208523944
83296.5692924132
83296.9497653895
83284.5178861832
83294.6358517975
83299.3423412533
83305.1368759622
83304.195668253
83312.4754000876
83312.5977678208
83325.0800598036
83325.1859685373
83329.1512437363
83333.3704849911
83334.6999634988
83330.8207714142
83333.5103453943
83335.3902513082
83365.4234640488
83366.1296376212
83375.0243260438
83374.6131863135
83385.9813399478
83386.1646215816
83401.0474737558
83400.5084182232
83416.4936619734
83417.262830925
83433.9856271062
83432.9556266467
83448.4412909032
83449.6592082728
83463.6699887057
83462.3685231281
83473.5339293788
83474.7044894971
83484.2188565831
83483.5255306142
83492.4392702152
83492.2343529778
83505.376968933
83506.3914579807
83527.7147970315
83525.7269263986
83565.2148473043
83567.3938546653
83626.7488879847
83625.8977366251
83695.9607915732
83695.3345345266
83753.638039857
83755.306767924
83788.2125767686
83786.4032026126
83802.3077353487
83803.8486781616
83811.1879312061
83809.7021521066
83814.798245784
83816.3241474982
83818.8713428889
83817.5048407414
83819.8479385882
83821.0255121687
83820.8204714657
83819.8659355487
83819.0891611625
83819.8967445401
83817.0964547522
83816.5666299415
83813.7262975498
83814.0936143659
83809.6828038087
83809.3808558266
83804.7236692837
83804.9394927063
83799.4517896301
83799.3634734683
83793.7818704379
83793.8317031473
83787.794113195
83787.7714721065
83781.7196734931
83781.6807041856
83775.5290031606
83775.6130434342
83769.6314681419
83769.5525609701
83774.9621947314
83775.0278964763
83769.0281905717
83768.753006463
83773.9950375396
83774.1771593135
83768.564401428
83768.6891049632
83773.4595491229
83773.4136473768
83769.0985398994
83769.4118332526
83772.6353210346
83772.4248160333
83777.3794745098
83777.7216588923
83780.1120017562
83779.8533328065
83783.8136203013
83784.1579980866
83785.3411752159
83785.0324655348
83778.0537972287
83778.9240336583
83768.9997515103
83769.2233249249
83761.5271178209
83760.6888109739
83754.179421266
83756.0306545464
83753.5746400489
83752.0828846812
83747.9771393302
83749.123561391
83742.2572356
83741.8725920794
83735.8490221034
83736.2307290338
83727.1135006369
83727.4453573589
83716.4830990831
83716.3373548674
83706.5534682167
83705.4571450886
83692.7146154747
83693.8427678762
83692.2908458454
83692.243917961
83688.3547833346
83687.3930006036
83670.7004494686
83672.6336086553
83665.8529640955
83662.123406621
83646.9093277898
83650.4898668414
83647.5360165412
83648.279204257
83627.0186363995
83623.8643055827
83595.4645183385
83601.8853667658
83561.3862452576
83555.4206453959
83518.4365311672
83511.3513626949
83460.6936650499
83467.1912440399
83443.4495257852
83435.7496465067
83399.721464389
83407.3344326397
83381.4916542466
83375.8994804922
83426.5932251404
83430.2323852016
83471.8778377134
83469.890187222
83452.5586908608
83451.2363217306
83417.5825720934
83412.2491780169
83387.1553551592
83393.438475893
83329.7297999032
83326.6608352107
83291.1356956941