/*--------------------------------*- C++ -*----------------------------------*\
| =========                 |                                                 |
| \\      /  F ield         | OpenFOAM: The Open Source CFD Toolbox           |
|  \\    /   O peration     | Version:  2312                                  |
|   \\  /    A nd           | Website:  www.openfoam.com                      |
|    \\/     M anipulation  |                                                 |
\*---------------------------------------------------------------------------*/
FoamFile
{
    version     2.0;
    format      ascii;
    arch        "LSB;label=32;scalar=64";
    class       volScalarField;
    location    "600";
    object      k;
}
// * * * * * * * * * * * * * * * * * * * * * * * * * * * * * * * * * * * * * //

dimensions      [0 2 -2 0 0 0 0];

internalField   nonuniform List<scalar> 
209453
(
0.0158049266277976
0.0168272478876596
0.022383261762639
0.0212621875343409
0.01655745021648
0.0164655240426008
0.0208300362730997
0.0201789333693977
0.0197706995274576
0.0157907158479477
0.0160114491614055
0.015531186920703
0.0153833925668583
0.0154604495387508
0.0155983123710743
0.0161723375805378
0.0211262999310348
0.0208377452239864
0.0158861817672371
0.0159751931616983
0.0222452232559543
0.0223611806191331
0.0162944860125362
0.0156833940822474
0.0155352258218721
0.0156202924527474
0.0157723837249687
0.0165429891297641
0.0236473682723196
0.0235495919799511
0.0161774643212864
0.0167396353971386
0.0247216628976384
0.0249208916013798
0.0171705245817148
0.0173117116924349
0.0253214358848004
0.0238008317901685
0.0169743871892067
0.0171468126019498
0.0234350832749001
0.0226895142227497
0.0171522950348201
0.0169904207212236
0.021030056765046
0.0196511338025021
0.0165795290468094
0.0160329643623906
0.0186255517521984
0.0171719320473649
0.0155530679955765
0.0152644650451444
0.0163347276809909
0.01575121961798
0.0153141786940166
0.0150262950253345
0.0150622862538938
0.0150494554352129
0.0150148271431111
0.0150111331116361
0.0150081617996107
0.0150231924014612
0.0150384064702215
0.0150745554500893
0.0150476793530009
0.0152259543386115
0.0163415774247317
0.0163916100879269
0.0152584590549452
0.0150607493703612
0.0150872166559655
0.0156036963014047
0.0157018222315919
0.0152726564779775
0.0152904935630483
0.0150252626254096
0.0150264927609012
0.0155448831800363
0.0171624413453373
0.0169934086867951
0.0154243501317933
0.0151092560243193
0.0151671156316816
0.0151829748013977
0.0151177836580505
0.0154491747798197
0.0156441054691365
0.0156660806326938
0.0154657747260926
0.0153238004828694
0.015446241031138
0.0152039294809736
0.0151313618895423
0.0150871933914603
0.0151274742394232
0.0152115925226911
0.0151446921592001
0.0152012367984818
0.0152675035571716
0.0153160540032578
0.0152607457898988
0.0153294932477427
0.0153916897123417
0.0155302763535766
0.0154188687549133
0.0157807185158661
0.0160063744889332
0.0163358608790274
0.0161724177348992
0.0173929874695701
0.026236175837969
0.0263037187370421
0.0176864806534394
0.0178010892015299
0.0267316053713643
0.0258512396651952
0.0174974753333661
0.0177586949087256
0.0267373335159095
0.0276194639881136
0.0177833682403364
0.0178464214825148
0.0273457057413151
0.0278077190673685
0.0177396986808444
0.0177968856612645
0.0280188741461492
0.0307072734546766
0.0193230270522047
0.0188963093188342
0.0297803679841516
0.0290379529368541
0.0183299519848264
0.0185416384521052
0.0307763342446153
0.0299253507811335
0.0178348849476017
0.0174075799620329
0.0269030931977047
0.0246798567260618
0.0172495392040129
0.0168041069585447
0.0238093715164506
0.0221857798271318
0.01669578212484
0.0165817437524355
0.0207670995237732
0.0195442882333217
0.0163204069732905
0.0162471685551614
0.0194023513873557
0.0184879225821719
0.0160178276625216
0.0155545754614937
0.0172471423016739
0.0164286449328375
0.0152819468889891
0.0150548298363936
0.0150201054186274
0.0153218679633494
0.0158280092694869
0.0158364265027617
0.0152869895350951
0.0150116289495931
0.0150342920323803
0.0150180257387412
0.0150078786496218
0.0150132681538388
0.0150342546154394
0.0150387148477307
0.0151489692599188
0.0150953474333155
0.0151871028445619
0.0164385913787916
0.0164407591082224
0.0151168273981006
0.0150164047143826
0.0150045156353934
0.015288378279496
0.0158302092218264
0.0159096346820319
0.0153437154975841
0.0150013382500976
0.0150126264685842
0.0150085840461709
0.0150047263275022
0.0150025671221812
0.0150050089247132
0.0150085994187186
0.0150037997748802
0.0150053441577177
0.0150157710743028
0.0150105852722891
0.0150050223362104
0.015003320634112
0.0150043911191187
0.015001677647942
0.015001369219134
0.0150032578350421
0.0150043963809568
0.0150088072852472
0.0150061233380524
0.0150074669746305
0.0150168347046638
0.0150631140381936
0.0150327186562126
0.0150198372349425
0.0150293596656614
0.0150757958617163
0.0150561693809722
0.0150822191175636
0.015099901240964
0.0151327528420215
0.0151178999938545
0.0151572564860194
0.0151924141582958
0.0152354296293485
0.0151998303066098
0.0152432039239053
0.0152812634249751
0.015334209668458
0.0152910765577572
0.0153448577361052
0.0153874269199468
0.0156686748124234
0.0155514602471834
0.0156320918974019
0.0157306363537803
0.0163823949986164
0.0162305057525276
0.0162312814677321
0.0163746419235334
0.0176266668168725
0.0177206764624264
0.0180763183257875
0.0177940173974323
0.0177346324157138
0.0179627819056382
0.0192956364806065
0.0321962913018319
0.03123149034445
0.0189191805961204
0.0184021644636883
0.0308708975249335
0.032383324199117
0.018581385845602
0.0202467645241052
0.0344509005708302
0.0342271769786088
0.0196466878516075
0.0184361322256119
0.0310412707811575
0.02803549335685
0.0173053452083669
0.0169420477381727
0.0256643176463114
0.025327992318922
0.0164369539196785
0.0163867068131722
0.0236294699488268
0.0221422297011677
0.0163742105654183
0.0163754518983835
0.020721901128439
0.0211356971772573
0.0164339197330765
0.0163605456400649
0.019495961287936
0.0192716587044322
0.0160935257086871
0.0157615341543933
0.0184038489006313
0.0172328653909714
0.0154241756140661
0.0152511652063462
0.0172105426961619
0.0174151735769524
0.0153793640121262
0.0151596703100003
0.0165732328806427
0.0166609608229812
0.0151422892011892
0.0150112490390128
0.0150038407713528
0.0153738829065568
0.0159613333024098
0.0159023016554219
0.0153415416770491
0.0150023080103658
0.0150088734499653
0.0150059691249677
0.0150026333479496
0.0150025966041274
0.0150062454969028
0.0150063984458466
0.015002460971566
0.0150024458401206
0.0150065156050003
0.0150068040827048
0.0150017136143599
0.0150009426792542
0.0150008494542921
0.0150046534389198
0.0150051447325951
0.0150150784578366
0.0150127746315132
0.0150306939013873
0.0150398869227286
0.015086906022535
0.0150688952837697
0.0150939749696827
0.0151069334189117
0.0151363363990928
0.0151273057434447
0.01511444311148
0.0151249795996227
0.0151585836312661
0.01514874818371
0.0151546645782402
0.0151693260480472
0.0152069029113771
0.0151912867584082
0.015228618502051
0.015245263000427
0.0152821175042962
0.0152658175299839
0.0152856499651928
0.0153023915288352
0.0154081315827919
0.0153666439695265
0.0153747294102548
0.0154174456545304
0.0156999181448421
0.0155880842738562
0.0156272597659876
0.0157331426995311
0.0157852613251424
0.015697146157111
0.0162991612976207
0.0164426429431316
0.0164321104202763
0.0162891852061294
0.0164814243056969
0.0165956824809875
0.0178465302170994
0.0181009083475642
0.0194847725805946
0.035538233486685
0.0335362739724812
0.0191784320190299
0.0199697159593411
0.0207800663731838
0.0382820013276988
0.0355899316247907
0.0340231589959675
0.0190976224609985
0.0197540717898532
0.0360633199442122
0.0386540211225919
0.0429951348078589
0.0215398923652052
0.0204101255158603
0.0193043519454718
0.0188136229777604
0.0188470160303429
0.0193111315583534
0.0204999273930919
0.0214646335200978
0.0457338435899413
0.0410333073545484
0.0432406399668407
0.0205689448005325
0.0207447892779323
0.0398076230115469
0.0397228233873145
0.0207831291652916
0.0207117874793516
0.0366124007971013
0.0204491962480214
0.0180839464405138
0.0204683131121755
0.0403109737323677
0.0351372081096301
0.0201590781010534
0.0195735711536755
0.0327010551301887
0.0295558991107718
0.0175426518029986
0.0166039958215298
0.0272939617061838
0.0280718237352358
0.0165688209208515
0.0164851722541499
0.0260438151345314
0.0242810543020943
0.0164568847217837
0.0164500615348778
0.0227564679753078
0.023489112788913
0.016552759848448
0.0165795246286319
0.021392536811942
0.0205310794599623
0.0164122582086123
0.0160193382511069
0.0197791883312502
0.0189778137015414
0.0158646370779596
0.0158741539090579
0.0196710752432776
0.0181593077906129
0.0154652046075156
0.0156209043588141
0.0185623011674116
0.0186799675265006
0.0154691291633353
0.015344863482693
0.017531610053051
0.0173243660053714
0.0151401851903915
0.0150692451746459
0.0165555896074617
0.0165525906878673
0.0150711945996454
0.0150132066159458
0.0158998298521087
0.015341155151166
0.0150033649210539
0.0150038600685686
0.0150084530697172
0.0150072106186952
0.0150026326703245
0.0150023990704147
0.0150075946889982
0.0150079460752874
0.0150022081503626
0.015001651187904
0.0150126033084106
0.0150063663389844
0.0150049057015686
0.0150002354550793
0.0150000539425592
0.0150057504214971
0.0150043042283627
0.0150224460323669
0.0150379789087969
0.0150785594834302
0.0150527884838021
0.0150159262052948
0.015022605966501
0.0150768551465647
0.0150479387464649
0.0151020403808603
0.0151408490431427
0.0151668994045236
0.0151326825940573
0.0151734213281635
0.0152059609783118
0.0151435613139656
0.0151312473355521
0.0151671429009419
0.0151790727884141
0.0151697328325386
0.0151614018188262
0.0151953985855543
0.0152039260408775
0.0151930266726606
0.0151829664290965
0.0152175125388485
0.0152280305819587
0.0152622180882315
0.0152514689056824
0.0152700662562983
0.0152818303718925
0.0153013688542392
0.0152844394788377
0.0153042105360568
0.0153225386126952
0.0153234579977069
0.0153052870237645
0.0153892949550757
0.015429587198253
0.0154404081633748
0.015399809034079
0.0154230305041756
0.0154641310600561
0.0157596626752906
0.015660249483948
0.015780452212274
0.015842167035219
0.0165295180258237
0.0163885035337746
0.0166157035215019
0.0167037695188627
0.0172110811382467
0.0171278097703142
0.0186189822580727
0.0183516021048948
0.0171546466660167
0.0168532186660633
0.0163401467600086
0.0158366609801568
0.0157262343540813
0.0157299431642213
0.0156761683118931
0.0156660379606976
0.0156315730995142
0.0157457240027027
0.0157311141295281
0.0162984548926696
0.0168636819101436
0.02684575354726
0.0238091089217735
0.0164506395531256
0.0158108172929158
0.021819956703619
0.0201161252624905
0.0156097444998552
0.0153212128916767
0.0193234718589262
0.0182406613920025
0.0152210496511631
0.0152249038035983
0.0182247816160416
0.0173169719565771
0.0151434019575199
0.0153587429420973
0.0175243767193703
0.0166620186617299
0.0151467962230686
0.0150111826696978
0.0150055259292389
0.0153728569163943
0.0159609620416904
0.0159108062150787
0.015013063814711
0.0150018377061905
0.015342500451902
0.0152870849288309
0.0158055488145003
0.0150152845201851
0.0150023409320675
0.015003418930597
0.0150085852498918
0.0150069458508799
0.0150030519803773
0.0150043838570049
0.0150095670176242
0.0150128115304162
0.0150588636020763
0.0150553094212721
0.0151641597691172
0.016577031865177
0.0164011325485656
0.0150995364001901
0.0151581810143097
0.0163851294279483
0.0158073934955314
0.0152852767917447
0.015006579856476
0.0150281669172001
0.0150147153597013
0.0150046559688033
0.0150097118746771
0.015032904369141
0.0150441126693137
0.0150091219055738
0.0150270164119397
0.0153128721930159
0.0157399405511073
0.0150625487465987
0.0152805968451337
0.0163156918741084
0.0162936751581508
0.0162772441387435
0.015143264784396
0.0152525659039771
0.0150607314288422
0.0150440758545591
0.0150190796988139
0.0150270029405584
0.0152725217265631
0.0152904668672686
0.0155948250507919
0.0156530514937553
0.0155925551952686
0.0154124695684726
0.016873733830974
0.0169833487625991
0.0171594891535437
0.015544453325399
0.0159815115664478
0.0185688668699733
0.0182579619981227
0.0179215660213527
0.0157002094681037
0.0158416591863011
0.0156362641908529
0.0154203824237576
0.0151317889205168
0.0152000411212109
0.0152267643122773
0.0151505175212212
0.0153082649515747
0.0154450684034526
0.015658125069556
0.0154366797388663
0.0156965906144244
0.0159197580407464
0.0189690533671408
0.0186178935049743
0.0195676974075383
0.0157364254365927
0.0159895366027938
0.0199252009946926
0.0205804569661285
0.016390837859307
0.0164708712885381
0.0209941295387815
0.0208358485298211
0.0205974302174219
0.0158018051729692
0.0161212485405542
0.0155671468540098
0.0154198525691096
0.0152215873997084
0.0152770060630935
0.0153264939909648
0.0152745732657877
0.0152149633956414
0.015248021254846
0.0152903946049499
0.0152559301271547
0.0152025242248154
0.0152147958740793
0.0152510449395558
0.0152385920724339
0.0152299389404218
0.0152389812887417
0.0152736945477724
0.0152640541207369
0.0152829224876579
0.0152937901354912
0.0152817485415943
0.0152699422622044
0.0152897794889664
0.0153035868707851
0.0153033988596293
0.0152896858781663
0.0153098478636406
0.0153265678946771
0.0153450053746704
0.0153242977276779
0.0153252607883366
0.0153458565836257
0.0154508227538207
0.0154109604444625
0.0154229343327967
0.0154583196478051
0.0154722927677757
0.0154386243718466
0.0154507332104893
0.0154851649391167
0.0154859169716284
0.0154516749895633
0.0156803170027787
0.0157643314199256
0.0157888353283296
0.0157043886939068
0.01581103854214
0.0158673983379938
0.015872542090781
0.0158332945692487
0.0159163421561434
0.0158765304378585
0.0158501384917691
0.0157941577063643
0.0157904545844257
0.0158490258021835
0.0157680354933276
0.015677849345084
0.0156674047360756
0.0157565840943235
0.0154716606259915
0.01543515407085
0.0154350049904896
0.0154713997763938
0.0154858296008308
0.0155218593626851
0.0155383585278837
0.0155473359679502
0.0155472001332294
0.0155616505071506
0.0155619163248221
0.0155636687886422
0.0155631964596425
0.0155717286730707
0.0155700311328253
0.0155869955354774
0.0156100179072139
0.0156130111702967
0.0156730110960206
0.015813145344169
0.0159015199334867
0.0154451233428901
0.0154718879229271
0.016189526263134
0.0237841799687
0.02209937369011
0.0159362407613703
0.0155761171922892
0.0205820421581025
0.0205525527149302
0.0157768751445764
0.0153606540481286
0.0192930330323158
0.0200036919223939
0.0156791558811078
0.0154758441404656
0.0186406398873952
0.0185121714531207
0.0155234171486888
0.0153749296766074
0.0180439939707824
0.0180753873602601
0.0155749105067628
0.0153234284913929
0.0171242204291471
0.0172039059366617
0.0154687674074022
0.0157221384884189
0.0182098172611749
0.0199874409989205
0.0163434325077476
0.0161649655514881
0.0192466020308801
0.0195369980008854
0.0165618518724667
0.0165846765995053
0.0201895009985033
0.0214809677689204
0.0168785863901548
0.0167047093886234
0.0220791994983221
0.0220454285552622
0.0219983673276791
0.0158653647608787
0.0162156245372814
0.0156388797269562
0.0154916414604883
0.0155890885655756
0.015736550253488
0.0153879674529707
0.0153339869952872
0.0154088816335231
0.0154714341055573
0.0153350644368827
0.015299566564787
0.0153447031520323
0.0153777077687861
0.0152861913129264
0.0152740001123115
0.0152933135684526
0.0153064210514741
0.0152937785939266
0.0152829135948644
0.0153033465252083
0.0153164689613467
0.0153162756204531
0.0153031780788203
0.0153242443294783
0.015340756815
0.0153271920825345
0.0153102612780975
0.0153211262437585
0.0153354923775383
0.0153482678054726
0.0153350647455749
0.0153344427740408
0.0153473882188359
0.0153472670968857
0.0153343063740135
0.0153483671480834
0.0153648418397339
0.0153653008604708
0.0153486242131419
0.0153494815898728
0.0153659826446299
0.0153658536244994
0.0153493234153845
0.0154326800806589
0.0154657154529955
0.0154772251588193
0.0154462988002629
0.0154557703873149
0.0154877192566951
0.0155006055591724
0.0154679200763394
0.0154694151303825
0.0155018831489667
0.0157741037784976
0.0156956572492224
0.0157311961714947
0.0158120077776396
0.0158912753001385
0.0158357192570194
0.0159037547635722
0.015927374787487
0.0162629794351808
0.0162736614544267
0.016309048982562
0.0162994154716841
0.016779963850219
0.0167009646412291
0.0172319298390047
0.0173083078819664
0.0189935029431556
0.0185902674273774
0.0208947035961459
0.044758202127894
0.0408675656161468
0.0203555360984744
0.0204761082379679
0.0429436097656545
0.0451906401589195
0.0204566854134196
0.0207369404284811
0.0431086487170779
0.0436170255733171
0.0208317516827383
0.0209086001073152
0.0487840699464127
0.0441378252978899
0.0215340802649265
0.022382800586005
0.043438503756956
0.0379702482398656
0.0217091967596861
0.021499486057491
0.037533809983819
0.0350454849508262
0.0208241479972411
0.0203742569396857
0.034280402498494
0.0366758487058948
0.0193436385858988
0.0180979567209629
0.0328662504091543
0.0303227617930573
0.0170776305933249
0.0168958232939997
0.0330979839044694
0.0301194628590438
0.0166747296575051
0.0166073045655182
0.0274759967912963
0.0252857424337507
0.0165669031681607
0.0165726559597865
0.0242615573298096
0.0228045519443689
0.0165570134487735
0.016162888667623
0.0216936863047916
0.0205092137635461
0.0161127207941103
0.0160587795180214
0.0204442803817592
0.0159896340736747
0.0161029406586704
0.0161626307034433
0.0218309091958895
0.0227396011158876
0.0161460330247938
0.0160512506066183
0.020282168109879
0.0153286784472354
0.015129805267373
0.0151343282937721
0.0152869103160304
0.0159374692129187
0.019889131328704
0.0191134734210386
0.0156807939926784
0.016032270845324
0.0194297904033905
0.0204126948517462
0.0164211558417969
0.0167966567217755
0.0211233395484951
0.0211288711210937
0.0166111744459201
0.0166571086620589
0.0217148457966732
0.0224660164187429
0.0170419283938153
0.0170283532094059
0.023101814156628
0.0234131627008442
0.0169003429744135
0.0162609131900584
0.0159072797863522
0.0227989021984469
0.0232479715875457
0.0243611727197245
0.0239090890988237
0.0165017556724127
0.0169711663283776
0.0159410900019947
0.015749195212435
0.0161478078837753
0.0164222363129738
0.0155842658323551
0.0155160709486635
0.0155451661964172
0.015610145533055
0.0153993522455881
0.0153665680812824
0.0153649799053154
0.0153968284248064
0.0153064298228033
0.0152932443739572
0.0153141899019352
0.0153294143543568
0.0153291041720348
0.0153140642178458
0.0153357734500803
0.0153540781391187
0.0153413018633711
0.0153246795361588
0.0153362230523026
0.0153502163666115
0.0153637373101716
0.0153510341266767
0.0153501758511926
0.0153628462967258
0.0153629440445304
0.0153503022169216
0.0153354122436816
0.0153485470424392
0.0153632317673328
0.015350651558606
0.0153499730476483
0.0153626582117257
0.0153615248098381
0.015349161250347
0.0153490109751687
0.0153613814871904
0.0153785024688038
0.0153629160418253
0.0153633944173193
0.0153793019124144
0.0153797802770621
0.0153640673482611
0.0153639292363612
0.0153796425342794
0.0153936530985249
0.0153777568747634
0.0154583336876843
0.0154887788021772
0.0155031305551297
0.0154711542986107
0.0154834431192314
0.0155162699197469
0.0155180050469631
0.0154854590431908
0.0157082827521934
0.0157850220405885
0.0158352934445827
0.0157541794571747
0.0158602262199693
0.0159167933307805
0.015959004486034
0.0159383349413493
0.0159750582534221
0.015988557717389
0.0164772633852537
0.0164755227562419
0.0164977021241863
0.0164944668807601
0.0168582260116175
0.0167889926428367
0.0173285752665792
0.0173969380558315
0.0188489763773018
0.0185919459743143
0.0207496905657955
0.0475895879568958
0.0429693969760219
0.02035308841448
0.0204144158736107
0.0463284578325215
0.0518524138716396
0.0207812077644913
0.0186542937515211
0.018875437098818
0.0189568112572254
0.0187477226548712
0.0208742490805648
0.0570322482773346
0.0502865537062433
0.0205227849461797
0.0207230398176485
0.0543068699628667
0.0493462857485983
0.0204866395039653
0.0209301877390552
0.0479869729170909
0.0538874515603973
0.021411044660232
0.021161262808454
0.0550589885814921
0.0504324379252393
0.0239143056166323
0.0251979273216198
0.0486275497840438
0.0415903732994648
0.0235713958769889
0.0233988144292168
0.041265508662769
0.0384873596717125
0.022171627146583
0.0204695040937865
0.0370749383227128
0.0432500262105149
0.0211461894749175
0.0197192394508437
0.0404698243965656
0.0449670728698887
0.0189807100848756
0.0183387385398791
0.0404532956652244
0.0364649617711022
0.0173827756451148
0.0169641677266742
0.0339380881144458
0.0310320458373326
0.0167979926777785
0.0166973938411934
0.0284682749738402
0.0261638506531386
0.0166163035624563
0.016240149427392
0.0244418056256219
0.0229172958678582
0.0161924792908414
0.0162063938211074
0.0230204890111324
0.0242601479784785
0.0164378063708108
0.0172913525528493
0.0257029792887238
0.0273722177325649
0.0175719286505288
0.0174083055674592
0.0281531587880203
0.0301918062080737
0.0178932654282441
0.0173584278792188
0.0298158392015465
0.0259227704943458
0.0166499847161298
0.0170571116313406
0.0256912591601847
0.023841623697101
0.0162332063533519
0.0159972513685023
0.0221040176908885
0.0241993706405392
0.016585392677314
0.0162754443922465
0.0216277150866626
0.0221132096296489
0.0168610058235271
0.0161227340015238
0.0207023344571667
0.0200648926798768
0.0161556932368077
0.0163402970872645
0.0209188076457468
0.0218098508883229
0.0167730172077696
0.0168875259358215
0.0228813710773152
0.0227294976556782
0.0167355739586775
0.0169332438531646
0.0233677783797611
0.0244069071756144
0.0173152695428737
0.0175526329811241
0.024878650187937
0.0247790251164186
0.0174294971280466
0.0179608681489183
0.0263582413214363
0.0256525880650419
0.0252081767914505
0.0171485169480007
0.0176987281179329
0.0183640659033733
0.0179113242821237
0.0268416502377314
0.0271584753506935
0.0279761351776505
0.0184745984179421
0.0187925877527527
0.0300494496685875
0.0292403772899975
0.0293379488453711
0.0189585841034025
0.0191192135585061
0.0185226194057495
0.0180689262606357
0.0178095283969892
0.0183822072760074
0.0165062125353635
0.0162468773024193
0.0162311023742085
0.0164955613898234
0.0156225341612994
0.0155516172711072
0.0155861861981791
0.0156551246259469
0.0156313260005455
0.015571180450122
0.0153900722730034
0.0154233674991403
0.0154166778801921
0.0153856337141427
0.0154063010509032
0.015437503351265
0.0153548938859072
0.0153362891579965
0.0153484770309857
0.0153641609333831
0.0153783796901859
0.0153641658227741
0.015363033219848
0.0153772388901431
0.0153766024240396
0.0153625554470614
0.0153512243062068
0.0153639822741669
0.0153798765813401
0.0153676073537834
0.015366974040741
0.0153791837207158
0.0153779860632883
0.0153658542003732
0.015366067939686
0.0153781830353935
0.0153938701779092
0.0153814105807725
0.0153654317645619
0.0153783335682045
0.015377352585358
0.0153643296818714
0.0153633172858125
0.0153759612003651
0.0153757640804858
0.0153631424247103
0.0153767360392886
0.0153924036459256
0.0153935445883985
0.0153774085041168
0.0153778929750829
0.0153938477126731
0.0154080726034069
0.0153915289198553
0.0153913787577429
0.0154077881982223
0.0155003128486854
0.0154699078963349
0.0154858990684876
0.0155183975623068
0.0155319915161943
0.0154984928136023
0.0155010014935781
0.0155341884805599
0.0157966220692184
0.0157203298086207
0.0157760014133428
0.0158583978466233
0.0159427910313529
0.0158846434525756
0.0159090717191042
0.0159688267483827
0.0160176197784013
0.0160043556680644
0.0160339252196338
0.0160469558276059
0.0166023295439827
0.0166139105015733
0.0166281017657743
0.0166064905681052
0.0169415531176728
0.016883046101961
0.0174445173293913
0.0175087226044115
0.0176416632499919
0.0175766934253548
0.0177211909905101
0.0177866256515645
0.0190610169059664
0.0188645636898525
0.0210024821970142
0.0632783470668067
0.0550642615509919
0.0206664798596404
0.021009681067162
0.0601238829125748
0.0610057994625716
0.0219423745882385
0.0213107120039677
0.061318965119822
0.0578339087634309
0.0243002691976785
0.0265614758135905
0.0614873609397482
0.0556425307195109
0.0269288055796192
0.0271857685746805
0.052460670141385
0.0452429698954559
0.0250600456799216
0.0247503545184383
0.0445515118143137
0.0484371036620093
0.0246945686986953
0.023390863710198
0.0480736548817408
0.0520548105277754
0.0235469446540359
0.0216048264977161
0.0495678155490993
0.0445530719276809
0.020252694647012
0.019786285143305
0.0499075326250992
0.0448213115209685
0.0180915825761106
0.017608888707079
0.040856423374882
0.0372238679980332
0.017241962399187
0.0170338915469607
0.0347344269759088
0.0317255813791142
0.0168016309171897
0.0166311313525662
0.0290540503025572
0.0266090733142548
0.016529350652895
0.0170836051683396
0.0259847813863706
0.0268277928793326
0.0175989018534164
0.0176891215620717
0.0284744682718515
0.0307496039446318
0.0177866861377023
0.0179684746314219
0.0334159729224394
0.0363859820447604
0.0181488518704906
0.0178548180041163
0.0312323609007225
0.0338974637150882
0.018462676659682
0.0179157606571502
0.0331090002428328
0.0285315878256114
0.0170657588783142
0.0178758030860551
0.0288566452391769
0.0313469167506239
0.0190621483892201
0.0185566081036678
0.0298919203598806
0.0268485498137117
0.017003582051683
0.0174127893936132
0.0261307496504404
0.0285869639866448
0.0175206957793042
0.0173409634028547
0.0264780365897313
0.0247275774783225
0.0172424818485025
0.0171677037489873
0.0231078741326499
0.0219105507119596
0.0164742381917599
0.016404121492745
0.0215952431449313
0.0227000245562825
0.0170325839655837
0.017119854419312
0.024968520842171
0.0245748078739099
0.01700685343823
0.0169999352254587
0.0244676428401533
0.0252848900229726
0.017485026604754
0.0184824395990454
0.0273953487988906
0.0270130128223211
0.018506618218571
0.0184121585492435
0.0276287038826346
0.0281531376616573
0.0188875434025055
0.0191576889047274
0.0306969595372962
0.0332322042373544
0.0192723360053559
0.0190909588761204
0.0323771371587252
0.0314839271265484
0.032170093509203
0.0190747002470521
0.0196331641132791
0.0183090643839616
0.0179638205190551
0.016331001115206
0.0165833374604662
0.0165302783465048
0.0162903790040151
0.0163326736804977
0.0165382157130775
0.015687993285395
0.0156202499569105
0.0155937882465773
0.015648426223473
0.0154493241399986
0.0154143743895639
0.0154272396332385
0.0154576666082883
0.0154724265447284
0.0154439733431932
0.0154355142148519
0.0154612983216829
0.0154493243646352
0.0154245898643272
0.0153640363866631
0.0153784406763988
0.0153956002991682
0.0153818011997596
0.0153814811792242
0.0153949911546797
0.0153937827614464
0.0153801559927346
0.0153791062474932
0.015392523925579
0.0154094859501069
0.0153957402414608
0.0153839237012082
0.015396583686888
0.0153952928733142
0.0153827329492412
0.0153811911683404
0.0153936330516333
0.0154098064314698
0.0153966579057767
0.0153966409199512
0.0154099550396483
0.0153937402095979
0.0153800822622082
0.0153784822546562
0.0153922624808642
0.01539058270079
0.0153772846187091
0.0153770861036244
0.0153903111600205
0.0154064479492268
0.0153903638756672
0.0153912115227837
0.0154079283340475
0.0154226170905671
0.0154053476084319
0.0154054979293244
0.0154226163696282
0.0154222319521877
0.015405328311304
0.0154817161070579
0.0155121116403635
0.0155338635117574
0.0155008417545166
0.0155139049144234
0.0155481019277692
0.0155507933675527
0.0155169391863259
0.0157327825741653
0.0158087715910549
0.0158814990462489
0.0157979787895066
0.0158199381206006
0.0159044516935081
0.0159949357367749
0.0159334172826638
0.0159577264727466
0.0160211103459614
0.0160760676696968
0.0160626997871562
0.0160921654665347
0.0161057034579369
0.0166947227814451
0.0167268330969005
0.0167373079038821
0.016694470883774
0.0170306818147412
0.0169827207102926
0.0170828917623798
0.0171245928459468
0.0172207129166775
0.0171861766211605
0.0178738600133371
0.0179370260418766
0.0191801004333364
0.0189977131674571
0.0211530180381715
0.0704013381872516
0.0605064304984695
0.0208372646838088
0.0212382647011633
0.067011782899789
0.0695914547193021
0.0223940754662617
0.0215037435936255
0.0683369862773107
0.0664514125835157
0.0240945295548901
0.02625194576624
0.0710049366318273
0.0621879056292508
0.026749232482629
0.0250922959257883
0.0514854340810815
0.0469072708995521
0.0249761682544019
0.0246839290924647
0.0459423485755431
0.0493023977425611
0.0246774707023043
0.0248272710739106
0.054704957624597
0.0617986161399484
0.0252373977582546
0.0235144913539833
0.0565141786226657
0.0631892259384275
0.0244220044860979
0.0228237599167244
0.0609248717588303
0.0499872545093049
0.0209782083159785
0.0209460489515027
0.0554241903935626
0.0492121555188367
0.0187406245530909
0.0181396660193348
0.0466101609568902
0.0420920368580289
0.0176892260801011
0.0173252584545139
0.0381739147314703
0.0397664171378793
0.0179429580615279
0.0176421470518599
0.0358956951782599
0.0324624604246466
0.0175121337404564
0.0174493459045317
0.0295926758605812
0.0173873705174193
0.0173286863506311
0.0174213332918823
0.016694759553434
0.0156563137225813
0.0156111006724219
0.0170083355062137
0.0182623677910464
0.0309187688056845
0.0365709273232806
0.0182101391427613
0.0179607284812145
0.0336979764929075
0.0308695407871394
0.0177305482487214
0.0177683253681066
0.0301753333685226
0.0278801066905644
0.0172910390031103
0.0178471348791145
0.0295044989461139
0.0273636532869778
0.0175195956164353
0.0172695264302991
0.0255872342043713
0.0242201676573584
0.0171077092702281
0.0165804745950031
0.0233004213796975
0.0245664797738545
0.0167626154730683
0.0170016532647929
0.0260898759414842
0.0279185761863002
0.0175155086226986
0.0173183025998527
0.0260013768787288
0.0244030459036447
0.0171744990111854
0.0171459332552714
0.0162077082424712
0.0170370066225645
0.0245996184199042
0.023493176324277
0.0171589412942501
0.0170498955445562
0.0172433638935998
0.0165306423649549
0.0174316505174799
0.0272044327067405
0.0288744727401
0.0180131275930079
0.0173419161223284
0.017598700639625
0.0180293165070161
0.0327357829586093
0.0298986314722628
0.0175949993582548
0.0182109593270009
0.0320365424758319
0.0340126245507483
0.0191420948336628
0.0197441743188201
0.0310403229910505