/*--------------------------------*- C++ -*----------------------------------*\
| =========                 |                                                 |
| \\      /  F ield         | OpenFOAM: The Open Source CFD Toolbox           |
|  \\    /   O peration     | Version:  2312                                  |
|   \\  /    A nd           | Website:  www.openfoam.com                      |
|    \\/     M anipulation  |                                                 |
\*---------------------------------------------------------------------------*/
FoamFile
{
    version     2.0;
    format      ascii;
    arch        "LSB;label=32;scalar=64";
    class       volScalarField;
    location    "600";
    object      omega;
}
// * * * * * * * * * * * * * * * * * * * * * * * * * * * * * * * * * * * * * //

dimensions      [0 0 -1 0 0 0 0];

internalField   nonuniform List<scalar> 
209453
(
3.61346085516194
8.63404917654132
29.5168285721521
27.1835821459866
7.67711820085158
7.41572302688637
26.2354480034278
26.5414900472304
28.1536751037832
5.81501487989949
5.56843951726767
2.93000072511724
2.73393271767137
2.89134621103115
3.05267127209368
6.10782888908523
28.1691193476011
29.1579897969579
6.08427702108437
6.23272085727214
31.0736510256799
29.9403553779586
6.46010397193505
3.24917167162276
3.05334541157523
3.30462122876202
3.49704591986489
7.25795758036781
31.9402367580308
33.285177594276
6.90264033218992
8.88829321233504
38.3307322559351
37.0211344596275
9.45204022233899
10.0958018289266
35.964836425899
32.1669741085426
9.1175426820669
10.1092564729622
35.9769415331299
34.7378835570047
10.2600329203294
9.78485220032669
31.0072944274415
25.6635892658481
8.13732233267396
5.59078430725438
20.3732251352105
16.8696880979395
3.55627358078142
2.38846666648383
14.479557299001
14.0528733876792
14.3078949831552
1.08329747866742
1.09912198112535
1.02230860240471
1.00389556054297
1.00292212552185
1.00200601371711
1.00596288554799
1.01297813405075
1.02854973737729
1.01318192858542
2.48492170330223
17.5239307977303
15.8854159386284
2.40821306306078
1.15515182945249
1.81382448574207
16.0655071756532
14.4258426404111
13.902583783746
15.3789557217378
1.15330804236599
1.15752692095899
3.88394970530535
18.7305205704706
20.1815841364725
3.92605673932723
1.33467101987194
1.38300012053424
1.3907156687347
1.33774038781675
3.74294531970925
4.01218701033301
4.02970826978463
3.75340953844589
2.63641990984615
2.66392877043371
1.39962618908381
1.34260891794144
1.11179626676584
1.1434292863637
1.41883064056038
1.28935371062573
1.40522153158849
1.50935282348841
1.54068379099669
1.51039568862527
1.65441112105415
1.69045912877004
2.10346116778512
1.89090335997737
3.87783472411507
4.3468561803758
5.64343073305901
5.47401867410787
11.4936284231422
48.3320526790705
46.1560068367723
11.5429081985468
11.8637738765337
44.4675221637218
39.9878479093496
10.7020085952811
11.4977127724988
41.0203620677387
45.5616811705538
11.5853287304268
11.9850311914387
47.0167372784211
52.215193163901
11.7324931057871
13.2989978035379
61.2237306597888
77.0511094460522
20.7242233565601
16.2159290197385
58.8101400369393
50.9777882059578
13.4493234507195
13.880331688844
49.7404336596996
43.6210796132634
11.7545854707948
10.7327378473749
39.6244113051171
37.171942917581
10.4281154443034
8.22789066367173
31.4283414973941
30.012936106229
8.00371166484599
7.76092632677847
27.6902562088433
23.8655463927206
6.73864535121019
7.31367158813881
24.5630542660107
20.4120987037114
6.11826960949833
3.83065163034704
16.1769703270739
13.6650924641174
2.46335107205052
1.03664907486135
1.00860066774354
13.8942970681538
13.2922703013847
12.1490817811733
12.044011483845
1.00304025856062
1.00997422896762
1.00309077155741
1.00125437127153
1.00310192566459
1.00943195580515
1.01168396072729
1.52896080524533
1.47064696367254
2.18603434203878
13.1957284094178
12.785256196276
1.78347356294146
1.00577419855741
1.00165565408987
11.8553295071769
11.9247129613708
13.2253413389701
13.9077560568586
1.00408935001873
1.00981979726639
1.00101171508292
1.00057814690617
1.0002099866624
1.00039171473672
1.00090684802051
1.00038292883156
1.00067290013763
1.00296532316987
1.00119547780005
1.0004070797784
1.00034102506353
1.00050742413953
1.00009622371706
1.00006980450452
1.00015142504873
1.00027211415578
1.00064842272028
1.00033000546462
1.00065779244838
1.00258560481014
1.0716826867973
1.03809414540997
1.00432542023093
1.00821969658393
1.03106436442807
1.02175501914744
1.0378231333064
1.04983869978985
1.07349580353919
1.06274432334327
1.17281615391064
1.21262007446483
1.25401161767674
1.21503353597811
1.26678198406219
1.30718876679206
1.39526349880376
1.34177184563196
1.44611813447788
1.50905615567745
2.54563562152286
2.30098590051323
2.55694927088117
2.71925838962765
5.71696832458972
5.55511420307914
5.54964206677872
5.70448805039706
11.2168446716541
12.7898881766666
14.4853280067139
11.8675917334109
11.4801396378917
13.7479636339802
20.4667681798602
88.692951408297
66.3644901567805
16.2659380973975
13.5530283295206
56.9377908764471
59.4298323280785
14.0971113773713
18.8903144796305
61.8016946343085
54.0975143091693
16.528944503314
12.146541580019
40.7937537687935
35.3117359125731
9.44001292213843
8.54603672708408
32.8572942746208
30.8758634246464
7.96174289962616
7.93544208353947
30.185578123198
29.6304023057725
7.96708472140149
7.96825469929512
28.1144029972858
32.9197862883354
8.67942686055147
8.16556977228274
28.1826788671616
28.1864102495474
7.37834111200167
5.40125223501442
21.1722820851791
16.2155262833541
3.59865011533799
2.60658676924897
15.1428622383915
15.9003740177255
3.60419680212178
2.20300111216239
13.4830816807244
13.8094205527771
2.0757651956521
1.01102181571034
1.00366809833596
14.9601036580634
13.9559888109747
12.8202294009156
13.6187197673363
1.00311019441671
1.00857161955967
1.00047920362454
1.00020635940419
1.0002070317308
1.00046617971506
1.00049296264165
1.00019392427384
1.00018515709873
1.0005623794462
1.00060716023266
1.0000967123976
1.00002061215564
1.0000174875935
1.00031758971887
1.00038009749754
1.00171972199059
1.00132919278254
1.00692765507547
1.01137268878958
1.03468174867312
1.02457318170017
1.03508569538244
1.04519593548359
1.06208391539906
1.05514973449358
1.05152037529961
1.0581633686463
1.08484736709134
1.07748455104777
1.0925552574792
1.10501721707544
1.1438863109053
1.12922379348778
1.1770352655322
1.19479022991511
1.25943588941674
1.23434373850055
1.26840141647929
1.29884874706631
1.55084849470941
1.48417954267626
1.5077216512867
1.57550612746715
2.59584975850871
2.36157954403558
2.43307355878541
2.65425479283632
2.86166108420564
2.73334767253029
5.65759369130982
5.82254956578941
5.80525486283806
5.63032917704084
6.28651460297088
6.29159911370211
11.7650429131812
14.2124905789268
21.1452113714101
91.9667557597744
69.5546809727842
17.1365891181091
19.8776641945045
26.6129768505113
104.243144591068
77.2195740915003
66.8748564697888
15.6930344776335
17.7331048148062
76.8194789488335
88.4034316513353
123.383378100043
29.7053780407531
21.224432865371
17.0762514823915
17.1023607199244
17.177267238778
17.1105752026963
21.6411513444769
29.1920440343711
130.163189593691
94.0160099901663
89.0169870615542
21.461773959165
21.0707704463327
91.2695572301897
90.8007240194212
21.2209597077528
21.0930141455803
83.5168949133005
20.0002792004928
10.9839858043581
18.6479011169071
69.3415521728283
52.0254717139655
16.2987827275913
14.7046575212166
44.7585733273878
35.4452900873617
10.1475396923262
8.23881564893588
32.0918399058349
34.7865108234151
8.50982085264361
8.42779747325771
33.9534631030563
33.8931727052454
8.48547288827459
8.62132023703651
34.3431990962074
43.7809979230291
9.61535610687127
9.96266116994931
40.1163875846929
34.0043811112336
9.07680905181586
6.66237688552601
29.7448432440633
25.3125504739869
5.90824851101129
5.48439782491293
24.8844304251836
18.5318648991057
3.65190634159347
4.79446388194725
19.0576216435261
17.7774293971315
3.80014601846835
3.29541978952874
15.7710718122756
13.4752309214917
1.81001644828722
1.45464570136037
12.5243378645338
12.4917336956662
1.42251810591172
1.00767721938064
12.8051990826682
13.6019592271838
1.00275114141906
1.00038154396921
1.00083954421893
1.00059135243012
1.00021210080985
1.00018570612074
1.00065622356169
1.00079105846687
1.00015367476481
1.00009420183093
1.00236412482088
1.00066081885229
1.00040173839864
0.999971410603311
0.999959098084698
1.00159665981589
1.00148072624387
1.00644818592838
1.01643766648354
1.03616938092887
1.01670986339768
1.00218829905256
1.00437876953187
1.09089122899684
1.0511345921511
1.11517412724181
1.16419010555106
1.19408322991065
1.14057305237037
1.17633249718537
1.23064744924835
1.07667880342448
1.06425200075427
1.09446789158097
1.10753995185651
1.09032719225216
1.0819187743272
1.11795018900967
1.12661765721469
1.12027902376255
1.11170582498542
1.15789218443537
1.16820691060131
1.23198460680147
1.21409338292198
1.24981315036904
1.27477379791713
1.303045987235
1.27117049815709
1.31574875665461
1.35599591255823
1.34819036650888
1.30866466817657
1.52782749312835
1.59897501321709
1.62335076398728
1.55583091378998
1.60428296866282
1.68129711568903
2.69986133840596
2.49109321314627
2.99233131243515
3.02152606552612
5.9984660211576
5.82895133529485
6.56053189655791
6.47311912845399
8.59582073586827
8.97314785894772
16.3014385516735
13.5667482230341
8.16630818269021
6.7305564246674
4.58100214645151
2.67776710283422
2.30672599629642
2.32259464944106
2.35713685289597
2.33313201277248
2.2864005725075
2.93007344915815
2.89468276685531
4.69082914205157
6.73792310760251
27.2554198573974
23.2919950730194
5.82704420967221
4.52307462322275
20.7466347880079
19.2692428197317
4.16671575702751
2.23702711644788
15.2193430369073
14.3935336914763
2.06088517402167
2.00689558817734
14.3146751491362
13.4181571517929
1.77338973830227
3.19503162045742
15.6313125376742
13.7467362106644
2.01507437244686
1.01090557192258
1.00331603166986
14.9114810171838
13.9176099718223
13.1720218126578
1.01404261335661
1.0085704319439
13.8527956601057
11.8119535635075
11.6874945010648
1.01081141770645
1.00693746217682
1.00032382856893
1.00083397871747
1.00080256552356
1.0003023438964
1.00047803313117
1.00135209133253
1.00234114766511
1.29708885857955
1.34585495509149
2.17881351653232
13.414770163672
12.1989917966398
1.62449395278063
1.93144078390033
12.3458470842439
11.8566926909543
12.0248778204436
1.0025012247048
1.00902199745049
1.00233960641038
1.00054616436695
1.00177164204126
1.0090963460365
1.01910588158659
1.00180784238467
1.09893468172255
14.2885422132596
13.9182946215842
1.10836896041317
2.52323825957886
14.3626942159551
14.3825699682306
16.1561022258595
1.65860146966971
2.34043349540223
1.16160623539035
1.15075653562993
1.18521395448497
1.16842799259827
13.8977378624795
15.3720833176
15.4957257602931
13.6983144353549
4.46609614099976
3.90304691761246
19.1208694960984
17.7117514520732
16.7646019373745
3.5454380582733
5.48875564506061
19.9951110550005
22.9946893026459
26.1277031223911
6.04553530927782
5.71515687103964
4.21558953941097
3.60824772343551
1.36613050643939
1.47481359375766
1.48605412453797
1.37391033952966
2.49395574140379
2.72826014840682
4.22167125210388
3.61819745499379
5.69173759117778
5.70823084430583
25.5114462854777
29.5614990166439
28.0189896978081
5.72404862383397
5.83287092683739
26.4049352221698
26.0434521433202
7.51000820161419
7.73308872082656
26.9077960192762
27.8523166927413
28.7694556432486
5.93005022660042
6.2840211759005
3.05085847837055
2.69623626229437
1.41530296679962
1.5379931586337
1.5704837446269
1.49582729849917
1.21712171468359
1.27057092200049
1.31983629024047
1.26768285518005
1.13331249153549
1.14543182792875
1.20103365997079
1.18859868396631
1.16865217630046
1.18154950300788
1.2541477214123
1.23310121486874
1.2778947256493
1.30626422892458
1.27982175198112
1.25384592860709
1.30690522425996
1.34235012029485
1.33097346161857
1.29665495551877
1.34988271481702
1.39897649125604
1.41917630199009
1.3655327616567
1.35642717839236
1.40844847154595
1.65425351003754
1.57499761484091
1.59619720122876
1.67389675061976
1.70847133211954
1.63225309999862
1.66323446242158
1.73196087251961
1.73433715786656
1.66244953000234
2.49312979034672
2.67801724779218
2.75398229532803
2.56798512969866
3.0014778187762
3.05550986793363
3.07677069459504
3.10858747032593
3.4525341955216
3.0833972089167
3.03967892356271
3.01032401906549
2.98644325945317
3.03277887947095
2.71377237643753
2.51676211705113
2.48572166803105
2.6816136473308
1.70115753004326
1.62599079943166
1.62970784245465
1.70225395313564
1.73225647858961
1.78678012872919
1.83531192736848
1.84890038890589
1.85461512562981
1.88553798574761
1.88180748899579
1.88838007470813
1.8896824555586
1.93477337749737
1.925481994824
2.01259596456141
2.20797276538584
2.21790800234078
2.51807699164326
3.14276895715348
3.39140102759902
1.80681697562001
1.85036394723388
3.87019767218601
19.2766024269881
17.9430120959385
3.36012837850825
2.71810824344276
16.347118254216
16.8165877508083
3.21597172212741
2.28043571408978
15.2089470008994
19.0872573794621
4.18709897159959
3.63566799942295
17.5225370619412
17.877837420483
3.98685555920218
2.90014095435552
15.8586351838229
16.811103273924
3.9139014899799
2.81902220953938
14.2387103922052
15.3744170800946
3.36643644486726
4.4305029144023
17.8733319860057
23.1679735394362
7.02891865113296
6.12977526462155
23.0535856386186
25.4917482290668
8.16551430868137
8.72415041430182
26.3664398966231
31.9313030282845
9.64262216130269
8.62474940485105
29.2466411257389
29.6530225989276
30.7213028143406
6.02662658243928
6.56737672555202
3.185392605353
2.83034095810278
3.04450825371677
3.39924697053081
1.66899328049755
1.60623660831694
1.7968174031603
1.87516540019351
1.39702719953619
1.3426049538235
1.44619475357872
1.4987570156176
1.27797816763393
1.26053935789346
1.31275873463929
1.33756544941254
1.30622785087894
1.27792044175304
1.33976073344438
1.37819903573209
1.3732935075073
1.33482151873841
1.39815968767962
1.45380187606397
1.41662545170658
1.36384065131116
1.38834212316724
1.44298822614246
1.48264428631221
1.42728131210596
1.41790501467642
1.46431855645688
1.46846856370016
1.42022026481258
1.43741528272494
1.48530437573884
1.47780578650558
1.42344016280633
1.41669055552737
1.46388245666632
1.46571316813802
1.4153388628285
1.62828462571083
1.69803984785111
1.73267829374059
1.66513010106156
1.67530265204119
1.7462175983808
1.77657647740688
1.70330182772266
1.70351077653407
1.77207520525066
2.69370901098618
2.51268784224648
2.62444773282627
2.80200382866477
3.11189864432882
3.04611931720593
3.34662676495318
3.24291736047987
4.60477999354875
4.95739662756263
5.01391823474393
4.6708593378199
6.55766145116275
6.64941770629695
9.16103555014574
8.73576620810317
15.6644054684087
15.6419223719027
26.3068688161695
114.923637992075
88.2733038261615
21.1023426360777
21.0790880116858
85.7151175687598
84.8023666469769
20.5468580669016
20.8535737676146
93.7658182770486
94.9513907256816
20.9143363612523
21.0349942160624
98.8551911372157
82.0127129390821
21.5329992570424
23.345436735653
75.4439388974061
68.3924080783649
20.7782680470254
20.018904412316
65.6448274944546
60.9920556619342
18.314315773916
16.8447592570939
55.1189026183642
49.3604466728282
14.0892289928632
11.4720786359589
41.4001057772718
36.8779633242486
9.46721637312102
9.79874023644722
45.5418105864082
43.7688546349248
9.44876320514104
9.42835572700484
42.6951146619221
42.9410195140635
9.47979775143193
9.62253898905847
42.3302249604129
43.7509741283924
9.73766332447258
6.95377028737091
37.8527726779045
33.4001949051313
6.88072221111159
6.72223367614781
33.4566457989723
6.05914534762012
6.74133677097062
6.93175464245181
33.3620073049062
27.4247483185373
6.41218491408481
6.3345001915255
23.470341935168
2.40407131734383
1.15104902173055
1.12297119709892
1.92929887680715
5.41136372021795
20.9368965230417
19.6541606184222
4.06043306831398
5.8533063217671
21.5027696663774
29.266394449064
7.77950664726702
9.11604077869722
30.0886054965903
27.7962104442712
8.07709073878824
7.8780287861039
29.0674438691316
34.4508006507993
9.92507446500279
10.0242194333747
35.6445779301712
32.1991009456836
9.238669250063
6.6478805382373
6.06262292082913
31.6713670017128
30.6281794533341
34.20252445223
35.4272469848189
8.06804232903533
8.9316316598185
4.01000450659305
3.5675291812823
5.15528057731192
5.79235732695274
2.23970673170196
2.13978771050378
2.21934742010215
2.32142867503235
1.56241726109597
1.50473844507031
1.50721865965422
1.5627438255122
1.33595133699124
1.31221161934176
1.38307861888936
1.41904887005325
1.41532171144292
1.37953771536449
1.45832658376049
1.51385869625287
1.46715325751561
1.40977156155306
1.44619328570614
1.50134061248395
1.54920753179603
1.49675353722297
1.48037717704272
1.53162118228959
1.54198958930587
1.49037832048214
1.44533730374971
1.49577410986644
1.54710257346578
1.49643466342437
1.47193092432594
1.52740364491604
1.5076228667355
1.4606895175092
1.46321682855357
1.51041423258915
1.52782135019162
1.48269940121415
1.46539407332161
1.51842741873227
1.50444517941686
1.4553013358232
1.45516334872061
1.50276187510259
1.53821933163047
1.49034913645939
1.69749231164934
1.7685864606493
1.78408373319117
1.71428482818869
1.74007918671134
1.82059460958557
1.80973962538772
1.74112510797001
2.53257293506943
2.71461587889226
2.85927620656176
2.67981041415146
3.10391514310093
3.17324352231044
3.30458609685889
3.44035380355044
3.54417501417315
3.37601498998978
5.30659414842281
5.61695924030561
5.6153372324493
5.29485154677875
6.69175671636963
6.77428264735842
9.30922199971793
8.85419794186566
14.8016130079634
15.3034454989878
25.1409711598395
105.93409744548
82.6413191167559
20.8285447264481
20.831536132191
83.4668523644136
107.68391006719
24.9259137624015
15.2742741457908
14.6626255180751
14.7813974391848
15.4124780251078
25.0694463231956
111.714840077553
86.7649708924989
21.0612025496486
20.8645104220533
92.8662576548997
87.7070911732226
20.4283519977082
21.2859506720881
99.267910756549
106.547350342036
22.4623783426522
21.6100031675856
107.028671240313
99.6212974359173
27.9455610994125
31.568053316508
101.212213271552
88.8164505738189
26.9201985783671
26.2532642838824
86.5281618385859
77.5350562407019
22.6441964381083
17.0778272177205
63.9112289240079
77.3907193457154
19.1560036473974
15.0476061546607
53.6007881108013
55.2462756416702
13.5646403538647
12.3520201769368
51.4929736897417
47.9507573998864
10.6483639227681
9.90261980332495
46.1284702667783
43.9813519054483
9.69119239986882
9.62767133330907
42.4250771277647
41.6846566883242
9.58507774411888
6.92856273568111
36.1001601113379
36.5502597122271
6.9039995290661
6.78515648290225
32.6797972411591
33.1555901492823
7.37038035710024
9.26181450813243
31.6594262709094
36.7879705701785
9.90478870664572
8.88670817596799
36.7266853601496
37.7329178837094
10.0647653914554
7.93139280897401
28.8080068005319
21.0707723527793
4.92741250454046
5.70803013972155
21.5423794049841
19.3479503011882
3.98942962492154
3.5110212249063
18.4822101625072
25.9556609060261
6.31235467271882
5.73683995276408
21.8901166588829
27.8879757079588
8.482761624676
5.79255994887481
26.6157403243732
25.7940763534009
6.31562856320286
7.01530405934123
30.0668648218737
34.895201795384
9.25730383607549
9.27082303962375
34.90773834719
30.4331548463089
8.29798835713214
8.70157679850191
31.7653911691828
37.7305979802521
10.7850384172229
11.779878071598
39.9679128482963
37.986532099839
10.9488830989825
12.8381798852255
48.6180930758271
42.8809918651188
44.6062904761487
10.5316410633033
11.6121619104393
14.3902250492272
14.0410951023702
58.5818188029913
53.6994954962505
59.2447075210281
15.033186115372
16.2764448803247
66.6246335159096
64.4738206334214
77.3619992944761
19.4725545848682
17.7026445150271
14.9828567520318
14.532022958392
13.2887019749127
14.4002556006608
6.01115071489313
5.42178587568058
5.40260948266659
6.0174539956165
2.36299069401144
2.24171265260732
2.36681526516698
2.50033660447832
2.41806941590462
2.3084362964028
1.5890984250665
1.66058946521577
1.6465893508915
1.58140196385571
1.6745887064978
1.75374174751991
1.52860621805949
1.47347286673207
1.52552090059388
1.57575037776824
1.64794819819436
1.60065191949578
1.57569211318805
1.62855105051587
1.63160114566553
1.57952453152604
1.52326612322633
1.57654020694323
1.65747566245092
1.60090291408831
1.55950467798417
1.61488498478273
1.58658905440138
1.53537009498257
1.54518853691106
1.5981220755757
1.65596433079566
1.59746769719288
1.54307541339713
1.59678206689354
1.56992887600819
1.51183993462984
1.49811781599083
1.54829459434156
1.54951600563895
1.50123909275215
1.52375199510778
1.56909498013115
1.55760156621235
1.5034262769627
1.49060010734456
1.54378585149958
1.58080352677892
1.52310214444054
1.52309307376628
1.57281583174803
1.80464475542793
1.72758607491557
1.75127324707134
1.82560273159208
1.86468508252865
1.7770714315002
1.77908710783342
1.85396539290134
2.74011751848849
2.55587574299784
2.73786708139897
2.92026376068135
3.2469990127814
3.16668787544638
3.23285895821633
3.31908985208172
3.43567654161865
3.62232936926532
3.70363758359842
3.5089045731759
5.65290409156852
5.99291807709156
5.96177828460825
5.59610653203885
6.88232953251727
6.94278756283444
9.55422654478105
9.09130208616269
9.4442346367194
9.88040999709885
10.271015073556
9.87101172777302
15.0100838542332
15.6608891016186
25.3809802313189
117.306601097721
91.2396826701135
21.459399891772
21.4408909589528
98.9046377860563
114.945255991791
23.6543581983868
21.9034194439904
115.622317037209
115.742295836095
28.9091612306832
36.5738108214347
149.109410434002
151.320355155185
38.0939899359925
39.0914132007141
135.731554344505
117.789685297403
33.0006729983588
31.8569887411174
115.976891392993
121.724463709355
31.5957529836078
26.9030849039873
109.658643783957
108.402053144035
27.3955577520401
20.6005108304204
79.2626024361224
56.1151557922031
16.635552137453
15.2023464892441
58.1998289033331
53.6711005403467
12.3675217789317
11.1972195563906
51.0237855605694
48.5022796570421
10.4054616259871
8.81968576398422
42.6695523797094
40.968593745234
8.20020323605171
7.78477886214945
39.9089216102582
37.9279476551563
7.59587930529677
9.1855323941272
38.0094654430687
44.359707480469
10.6538728044443
10.7428952791461
46.8541225296378
46.8302019575594
10.7499554142043
11.1422044274931
48.1428770644731
49.9338845505842
11.5038653748348
9.66936613479284
38.2805659867073
39.8700886883883
11.1754794913842
9.40981381686171
30.611378389532
23.3429027429307
6.06907699735669
7.46450530689665
25.7974017689712
33.8672184874779
11.0551215660637
10.1215357553742
31.5695329248144
27.4749153118514
7.20237650821596
9.34727699426038
35.3429894214563
44.8075634896112
10.3968260586107
10.0178158302267
44.2318079160575
44.3873991370244
10.1004754100804
10.114047866533
40.1736706699789
35.5524337199164
7.37348364943026
7.11861989876002
33.4615900459741
40.4753567393482
10.3347026397814
10.185302342358
44.6244096424139
35.7162360985976
9.30419246524447
8.8560827361692
32.313686831007
35.7556113791227
10.350287220374
14.8261684945371
46.5984073040583
51.2048518724192
15.3870384609653
14.8732254720657
60.1857092837215
67.962716332316
17.3407785856227
18.3553502187419
75.3133828221387
79.1015312225365
18.5804198593003
17.3197525107341
71.7623394942184
74.7383830735406
91.1031393758089
19.759950547704
19.9272500672958
14.0197707551251
13.7788562263625
5.71214695268819
6.32266433904831
6.15041784363343
5.58051343333627
5.76797612727048
6.25431379300929
2.66692508081628
2.52107449171752
2.41500178430998
2.52500441941508
1.78715589217384
1.69903077957176
1.76415944269734
1.84443763148973
1.93579061105153
1.86288540369522
1.84295540435997
1.91112349743965
1.87327330365435
1.81499408020976
1.63093231714631
1.67723097646476
1.81205232955699
1.75710838209359
1.71218527690032
1.75855372303528
1.73579149589408
1.6780671891237
1.66695199794697
1.7251060262919
1.8532143452455
1.78593652615865
1.69440168192664
1.75881088776937
1.69630711791596
1.63665773429127
1.59537346517606
1.65010019912051
1.72861929720591
1.67209742767924
1.64862472060888
1.720586687146
1.64608278344992
1.58722582840615
1.54833566960529
1.61156550056227
1.58489997676161
1.53103801724094
1.53364523799678
1.58515688530293
1.60811601954088
1.56031039544367
1.53819499147126
1.59536771475451
1.6312133774559
1.57161740333577
1.55435211406898
1.61511638719783
1.60637969978615
1.55427173196964
1.75763908444718
1.83929358455594
1.86946451386081
1.78912494983919
1.81527674067555
1.90941537697917
1.90027630337177
1.81905382803631
2.58295220566227
2.76827872817051
2.98319510798214
2.79947138133758
2.86212730955207
3.04717296402141
3.40105905061824
3.30291193667805
3.37514044366823
3.48005790971706
3.5757200018814
3.78621352535169
3.87405098869096
3.6538498338681
5.8885263469423
6.26656452354568
6.22700403699484
5.82240961007247
7.12532969489585
7.13805763216566
7.33220960137105
7.40979559894572
7.71737123984444
7.54379032151027
10.7093139372915
10.3513662575694
15.3194175762762
15.9956345645388
25.8267170272557
123.615628702981
96.1335561340125
22.0008350832519
21.9448641390077
105.435722920124
123.841305512641
24.5804508208132
22.301783923183
122.801172231789
121.881242686104
28.270419354418
35.3119646828665
154.128627080737
147.81660611332
37.3091833634026
32.7087702532753
119.060586649987
126.600311249707
32.5501871954857
31.5282956766357
126.741777011754
118.381768531188
31.357054016784
31.701345642478
119.769232970006
126.876475745074
32.779660097904
27.1480036347549
112.659141705879
124.813423251994
29.7817163079909
24.576565652381
91.5029942154338
59.3812612295586
19.0367821568474
17.6179745345851
61.4667824420091
56.4835663666547
14.0701403272512
12.2768544871769
49.6659409438236
47.0515614691452
10.8053788368696
9.66480089605123
44.7211912152222
52.5038734064869
10.9704945727174
10.3321199149587
50.1583051236578
48.317245206122
10.1043893625451
10.0797239599366
47.4439718156565
9.66143913706371
9.02274841185924
9.10539617180073
5.85479551546015
2.513852929978
2.38487610267958
6.83968299379138
10.8884695852683
41.3633838882627
50.8164349703947
11.864860620417
11.3764064894927
48.5642899211866
46.2322338866219
10.780324480445
11.1587340732071
46.0237513695004
38.7604988605358
9.33087658376139
12.1770687920273
44.3214361682757
42.7773922170882
11.1119982104999
10.475445045472
43.0404439493716
44.1918170631946
10.2548885299542
7.49879868686354
39.0509691823009
37.8067513095219
7.85082851335382
8.45722959177139
37.6624377719155
44.6007808200193
10.4965437549945
10.0802729809398
44.2602115637032
44.738309163482
9.87742010245898
9.74529822947192
4.63122484261349
8.36542301970937
34.8435211574205
34.3528767622391
9.44403024942556
8.72291020401306
9.15041532624741
5.5259496360346
9.00844073707534
36.0197976711748
37.5809574460974
10.5300687462966
9.12996241567829
9.90045133050059
11.8692453822485
48.1524321003968
40.526761138382
10.3047410102575
13.4580931301837
46.9232630617852
51.9975866212742
16.2519219223636
17.2871763266491
46.7495886040304
47.1046333496026
18.5110298318947
19.1633448890975
46.7235843326179
46.7870026201674
19.7923297759108
21.9108241019659
49.104769842425
53.1160055113732
21.8927049725464
23.6633469381376
61.9288241291645
76.5125289528903
25.6980935716553
28.9683402101024
97.130728469231
102.141568338658
29.9207938999712
28.9044174425662
93.3518124955949
104.506434307778
121.822566620196
37.5643932123741
34.0626135058531
21.3317852388276
21.3843979158664
15.8678410034981
14.7279150115693
10.0112831320587
9.65275863878879
8.79712905643553
9.42828101643106
7.92323033475305
7.35927158574771
5.62421665542251
6.01166511107041
4.41616306034603
4.23351811561353
4.22444129937567
4.39341782806121
4.32440813536848
4.14882112987569
3.9966200859114
4.18008957553596
4.11686326130222
3.90299131304043
4.09297950885264
4.31555244495266
4.50188552305497
4.24770058380631
4.19948940467287
4.44540292938679
4.38152950631145
4.1190287761408
3.947800957002
4.18039581570378
3.83052442489829
3.62616311298811
3.23822123334288
3.41195284652934
2.89827616605189
2.75713660477245
2.43746294304252
2.54997163028662
2.25280886420675
2.16751280717014
2.0145821136151
2.11848641543957
1.91778351329202
1.83515340176303
1.72891616089856
1.81561789565037
1.73040664732226
1.66623082292299
1.6306046091262
1.69847426624217
1.70521707059162
1.64559004030503
1.62542980363298
1.69289870579037
1.67484171087485
1.60544680968208
1.60994296734434
1.66862811046708
1.89851599496758
1.8120108985792
1.86206345573741
1.95563810315543
1.99865500616658
1.89299082648487
1.90314953981429
1.99616954770505
2.82291198188235
2.63772473252702
2.92526909202906
3.11063314742121
3.17310510427916
2.98714711231779
3.4507696735975
3.56833597788891
3.65224838379232
3.52696822392584
3.96436315652088
3.72869699862981
3.80971997446005
4.05964425061619
6.50443954329928
6.1062422473633
6.03354785720087
6.45795185583532
6.7124921224863
6.31319824277311
6.22602420437409
6.6566238503348
6.89571823264639
6.49457528592773
6.38505727306789
6.83642999313864
7.7802986169522
8.0216668324349
10.8647379740175
11.1549241566508
16.4234797552751
15.7207002236411
26.1384660967201
28.9553408065153
136.563781508783
108.090970623426
114.390163228532
23.5141937402676
25.1522695893164
133.406366124461
130.613887234741
22.7845369838676
27.9886574901217
129.362464848973
162.787241843337
35.027334994433
36.9792032147996
153.111362322941
121.605857764269
33.2008671333976
33.968202480294
129.416514272652
143.104855465691
36.8705170700876
37.3294836236119
139.572487334815
163.528856375746
47.6884928057439
32.787635830234
147.643357535834
147.327326843874
35.8579065364508
36.3099100490088
114.822073815158
97.6773238140875
27.3678248300052
26.0922106971126
82.1752518799453
60.2234636290463
22.6834178601379
20.376321657975
64.2798162962982
59.4701212186766
16.3306710496365
14.0452267672455
52.6431693312217
61.92092526673
15.2175715210079
13.4000399555469
58.3516647654183
55.2453300319938
11.9758968747568
12.2184696930819
52.0939817296336
54.6193862262969
12.9523225336559
11.2158194187116
41.1547715872681
43.7587748452201
13.0780523807855