/*--------------------------------*- C++ -*----------------------------------*\
| =========                 |                                                 |
| \\      /  F ield         | OpenFOAM: The Open Source CFD Toolbox           |
|  \\    /   O peration     | Version:  2312                                  |
|   \\  /    A nd           | Website:  www.openfoam.com                      |
|    \\/     M anipulation  |                                                 |
\*---------------------------------------------------------------------------*/
FoamFile
{
    version     2.0;
    format      ascii;
    arch        "LSB;label=32;scalar=64";
    class       volScalarField;
    location    "600";
    object      p;
}
// * * * * * * * * * * * * * * * * * * * * * * * * * * * * * * * * * * * * * //

dimensions      [0 2 -2 0 0 0 0];

internalField   nonuniform List<scalar> 
209453
(
83645.7328286566
83660.8947495995
83682.5796090787
83659.7117127204
83645.2436221367
83633.7570535098
83623.8206698146
83611.5444734788
83616.396838787
83624.4620854252
83623.9177453058
83621.2042051453
83621.2086999486
83631.8999903786
83631.4258574641
83640.083514816
83643.9283011339
83641.8484644679
83641.3646469872
83654.223486258
83662.5959541774
83668.6118337482
83654.1393372244
83644.6491256393
83644.8903136062
83654.9169171872
83654.4903464692
83657.9033271012
83664.5059954697
83662.880286273
83658.0876962715
83661.5140491271
83662.7911685121
83661.8260513583
83660.6182211934
83658.9816924488
83664.6423971639
83671.5503393521
83659.0937539116
83658.4082035868
83672.0708099717
83659.1972427656
83653.9852800813
83659.2932818053
83678.5873625751
83620.3398502025
83627.9610737772
83603.0493644329
83575.1654172128
83582.6489559117
83599.0398578405
83595.8473491645
83571.5328900619
83661.1439635459
83669.5088575823
83629.3003454213
83619.4303754672
83613.427613337
83613.6629919976
83614.1759642131
83613.8352053983
83612.8289507984
83614.2111550812
83608.8391507807
83608.7537882356
83602.8317094642
83601.257959176
83583.5406597886
83598.961552346
83616.3829151419
83612.3966504398
83631.1304346127
83668.0688102914
83662.6707509338
83642.528133636
83621.624261218
83625.4876407538
83601.8292683617
83590.5436613236
83597.7374807193
83604.2276169251
83608.6321575977
83607.5770736584
83608.3386567714
83610.3459115177
83611.0947718355
83609.6332808307
83612.1930489249
83612.7665299711
83615.1894008797
83615.2617738722
83612.0412384242
83612.5347258447
83615.3708373222
83615.6532537978
83624.9245167219
83623.8994119322
83633.9236493846
83633.5020299894
83644.476901222
83645.4959906228
83656.2785448534
83655.3874977391
83667.48353158
83667.7887782875
83664.1392779789
83663.9754213719
83676.3687831266
83676.5207018458
83670.4240113696
83669.7741638349
83667.8453680758
83670.225240095
83670.8161863711
83668.3681319861
83657.1416868783
83666.8427045834
83668.0815214301
83672.1206654121
83689.7463259557
83675.2276367613
83675.0397930425
83683.8424076399
83682.0450004792
83678.184464406
83678.4344213074
83679.9047606304
83682.4211325767
83682.1670564241
83680.3566476114
83680.1765135181
83678.6279765802
83678.6726972337
83676.1655747797
83674.3468192835
83672.1292255967
83671.6872404208
83660.1229229272
83660.3982877695
83653.4197704205
83652.2557784426
83646.9285250129
83647.9014451197
83646.1513690201
83645.3358513234
83647.7559267263
83655.1562212065
83656.9680593302
83635.3929835429
83631.8158159797
83641.8879665433
83607.2600823497
83611.240761036
83603.8706477395
83601.0582712327
83589.8871484099
83599.0180657753
83609.7578108021
83618.297278013
83638.4197954589
83612.7368886984
83605.1637490212
83623.151751033
83610.0174587493
83606.3952028933
83607.8630196313
83609.013106741
83612.3354031823
83610.2953410687
83604.1962463279
83602.1880865549
83604.469672162
83603.9301003792
83604.0440581521
83602.403263205
83603.5397651767
83603.5682672097
83606.0005039318
83614.7236861189
83600.4738219615
83598.6808695214
83609.0376845269
83603.215927564
83600.8809042627
83601.3444926654
83601.9983602525
83603.7335505826
83603.4267829796
83606.0483479597
83606.1797499149
83608.4163452126
83608.4696588052
83609.0925245408
83609.076382561
83609.5351834951
83609.430267328
83606.44060865
83606.6549496659
83606.8190131931
83606.6131727751
83606.9627466588
83607.1572044509
83607.8768036345
83607.760573297
83608.8702553766
83609.1626321097
83609.2768527574
83609.0677600471
83614.9646848341
83614.8511130818
83624.3227610315
83625.0619159213
83632.1298612636
83632.4160609223
83633.2199850941
83632.8553899792
83642.8988485325
83643.5010141965
83655.5004468089
83654.8623943874
83669.4506213053
83669.7002631267
83687.3338506862
83686.990623234
83681.1791468033
83681.8751622358
83693.1583088116
83691.7110308702
83689.1568214464
83690.3229988691
83684.8592758436
83685.0910815991
83683.5702962535
83682.8710154295
83686.1074715839
83685.9859023406
83693.3974933294
83693.572495573
83689.1577974363
83688.1840348513
83685.1832388342
83687.8106093405
83685.7343885344
83678.9633044974
83690.9170086311
83692.5291974094
83690.6294246942
83691.1838125428
83690.4701151955
83685.4960884652
83669.9567475158
83668.9679448869
83661.9736316925
83662.117374137
83653.842851342
83654.5146757107
83646.9337094942
83645.5594053619
83641.5663844727
83642.9036889187
83638.9538662781
83638.684285368
83637.0827000999
83637.5342418989
83635.9272592484
83632.8402466631
83626.3487892678
83628.2950823615
83619.0359383012
83619.6368898939
83607.676711147
83598.5480600777
83603.2047521381
83605.7474725812
83604.0620342495
83602.5203544356
83603.8744651575
83603.2774272608
83602.3332504726
83602.1598844986
83601.1839026287
83600.6155244945
83597.4684345392
83599.2970421017
83601.5053168335
83593.4614215557
83593.3949040146
83597.3824517765
83596.7355541921
83596.1811815835
83598.7165074956
83598.6868421279
83600.9760704106
83600.973508432
83603.392753485
83603.2882760997
83605.3201058955
83605.5685504324
83602.7386924566
83602.5829784486
83603.8221498037
83604.0479762884
83604.2282926057
83603.9767598431
83604.2915862079
83604.568868654
83606.3996122406
83606.1130024742
83611.3699830474
83611.2601802697
83620.8189852093
83621.689912678
83628.4063636069
83628.6650090182
83631.1350553453
83630.8729664168
83641.5870897584
83642.1238619144
83643.0952872642
83642.5613757593
83655.6305672972
83656.3233116473
83672.8619666763
83672.6262193936
83693.8559768089
83693.9403816433
83712.0862339727
83711.2089205272
83706.613587683
83707.5453017298
83701.6056618793
83700.7788788031
83696.9849149183
83697.8630050929
83708.7717004458
83708.6560127576
83703.3976151826
83703.5136294588
83698.9710685674
83698.3548918343
83694.7420929328
83695.4467297934
83704.3538811735
83703.7351736054
83700.9217635337
83701.4795357745
83697.6559295162
83695.3231900364
83693.0157563859
83696.5512619188
83704.6238170565
83705.0948205584
83704.2863214659
83704.5367793182
83695.1129399742
83699.873202958
83703.8915694932
83704.6193555007
83716.2071805826
83710.1226272512
83708.1086145717
83708.7024949339
83711.9886382599
83710.6377181605
83714.8210198255
83714.4526019891
83707.2695045948
83710.2783631345
83707.8398900191
83700.6843081208
83703.0350496038
83708.0802258193
83705.9499012538
83704.3315783874
83701.6510040259
83698.5989665449
83701.8033945524
83690.9079693923
83707.4821013485
83701.141091668
83685.8130833488
83675.725011337
83668.3555437542
83674.45351665
83657.1636757856
83654.7589360584
83654.6834055134
83654.5280810549
83650.0304378397
83650.5183413935
83638.3803199671
83637.7461064461
83636.4109648948
83638.1438622062
83636.8078594723
83634.9908889971
83633.055297774
83632.2737220889
83636.2789945226
83630.6106675374
83630.7594705246
83635.2896444549
83627.3845935194
83626.6031363148
83620.425304483
83604.6988654121
83611.1450698869
83614.0654446675
83609.5512402369
83598.92847545
83603.257409178
83605.6752531093
83603.2452953896
83604.3720493602
83599.4778315074
83599.0416462243
83601.3529240092
83602.2945614623
83598.4078227225
83598.3513499073
83598.2517660763
83597.9388869105
83595.9130758807
83596.1161842305
83593.7062520281
83590.0596392615
83593.4935476082
83594.0550968274
83596.1458949177
83596.0649448643
83598.0718978025
83598.13906079
83600.4283669764
83600.4508182742
83597.2168874176
83597.6453218243
83600.6110720822
83600.308312944
83601.6341204708
83601.773242772
83602.0939408212
83602.0325825771
83602.6730306361
83602.211265792
83601.0800947423
83602.2599955033
83596.808896168
83597.2344464769
83600.5562109931
83600.1310364527
83600.3290084001
83601.0061915401
83604.7267182147
83604.8318345607
83615.0633333224
83614.5768554329
83620.4068919722
83620.007202933
83625.1820445
83625.4252558393
83635.4502421026
83634.7442392164
83638.7630596896
83639.3556629425
83653.5521622458
83652.8537830105
83655.4143127226
83656.1179426112
83674.2892226424
83674.0995222122
83698.5591983174
83698.4086974769
83722.7528723466
83722.1782981758
83717.6652148977
83718.5505353172
83736.035183707
83736.0217618367
83728.7142541083
83728.7261826049
83721.4076184474
83721.3172868891
83714.7728045081
83714.8371463217
83728.0675775149
83728.4550352886
83720.7694022763
83720.3498072496
83715.0638417853
83715.2376331612
83709.0274489026
83709.162685156
83719.6921519148
83719.7096018291
83713.5839771889
83713.7554600531
83709.44839999
83709.4562370455
83710.4312198168
83706.7345359329
83697.9802029923
83712.1395815945
83704.3318916311
83689.7007175745
83677.2803230999
83661.3955322786
83636.817481987
83607.3317603947
83580.4828010287
83551.058050317
83533.7668981875
83535.4628081465
83566.1182657854
83567.2766417172
83583.9812687906
83581.2118653536
83593.6100754685
83593.977976901
83588.3029894617
83586.5666938898
83594.0124475435
83594.8084571625
83591.3236751479
83590.5441648449
83596.3563033006
83595.8373115845
83594.0501316354
83594.9134672742
83594.9286073034
83594.4900902763
83590.6304726998
83591.4999990925
83590.5067184204
83585.1339851419
83587.2823245825
83590.9307707078
83591.9492646839
83592.9761543175
83594.6750678578
83585.4623881426
83591.4559298274
83592.7339389082
83595.4081489149
83595.1882445456
83593.8067724523
83594.0017688548
83594.0565708322
83593.8244068277
83594.7737127661
83594.435728981
83593.8547131363
83592.9860583275
83591.7225535814
83588.8554638776
83592.1204778055
83590.918992258
83589.3333076701
83587.8381178346
83600.2839125608
83594.9604299918
83592.3846253784
83595.8028532052
83596.9414599065
83599.0758687461
83597.0161284396
83601.0220742473
83601.6813175182
83612.6133823846
83644.2637401803
83641.5608127868
83604.8237239626
83581.9694763038
83555.8471731479
83568.2955395788
83585.6430698828
83589.6602240951
83584.8264592331
83602.1881196225
83598.4200358508
83606.4891032538
83610.2040327325
83640.444659768
83621.2726033186
83611.9742765062
83646.0069911585
83588.7190934105
83591.7087897673
83584.0486181777
83578.0161612459
83569.3680719309
83584.7382500305
83583.6866505314
83559.1337581256
83572.4724796578
83585.2248056864
83592.9608839188
83589.2937491218
83594.1594664515
83595.8487204237
83597.072350447
83594.6779826274
83598.4928091813
83599.4903631989
83598.7796044207
83598.5025766668
83595.2501232413
83596.4122358521
83594.6269004494
83593.7626860935
83570.8601612544
83585.250638369
83592.7591720579
83602.4159936447
83601.4415181256
83587.216325751
83594.2579719922
83606.2538078657
83614.2574408105
83626.9438577999
83613.9869719953
83613.0017044411
83613.9473635815
83612.2946330875
83608.2491516079
83609.2503947949
83615.7516708649
83615.1137408634
83622.5847825914
83623.9820552576
83628.8306603067
83627.7621494246
83638.5223598569
83639.5502082123
83648.8035217231
83648.180884986
83665.9886255373
83666.3349541823
83672.2474099204
83671.9306221788
83698.061087262
83697.928029612
83727.6803865337
83727.403717177
83725.3423776071
83725.8023569288
83748.3617422039
83748.8259312001
83743.5348935714
83743.2722482158
83763.8463948191
83764.6850028517
83754.9005413561
83754.0668894073
83745.3255975958
83745.927259256
83736.3917371078
83735.8462637995
83744.6403388486
83745.7304251985
83751.0802870186
83751.2306628007
83746.0544204892
83745.9369654087
83740.7763261464
83740.9507289499
83736.2717983157
83736.0948333152
83732.6585756833
83732.7801439527
83729.5325640788
83729.4341220237
83726.6492974211
83726.7673066358
83722.5677222193
83722.739646037
83722.605520445
83722.0165300898
83725.9220835283
83726.6238930517
83728.5080170209
83727.5211340558
83731.1578007654
83732.1811681852
83735.5779382075
83734.4588859637
83741.3302207682
83742.1966003623
83746.6198526964
83744.7441370004
83760.2447363105
83760.0173042125
83756.9452695901
83755.3839286584
83753.94776615
83751.0697088606
83743.6257505269
83739.1713481955
83732.5703774219
83717.7686665566
83696.234708813
83669.0448405735
83631.7827023038
83589.4775357544
83559.502171422
83542.5583963326
83526.2497978566
83510.8835688882
83507.7347656097
83549.9980140562
83553.2159350177
83575.8589168012
83573.1833974041
83566.3218134365
83568.0825240935
83583.1159640624
83581.4655421027
83578.7111522413
83579.3989915967
83588.7417137956
83588.7940778857
83587.3843833316
83587.7368779152
83588.0053254125
83586.3134423315
83584.7486322398
83588.6287584137
83590.9901962203
83588.4810169583
83585.9465354293
83588.3769787111
83590.5021485849
83591.1948480272
83584.761608313
83592.1948746793
83602.8133416935
83632.1971763854
83583.3373674533
83595.8748769309
83599.0958710725
83573.8913983133
83650.1705201372
83626.5722086898
83625.2481106544
83645.8190921529
83633.2082333675
83627.9922579485
83621.2405212181
83620.7524290113
83616.2443679248
83617.3331091873
83621.5730786782
83620.5056620783
83631.0411866738
83631.9800661892
83639.3281590643
83638.5966360818
83652.3109899376
83652.9995136299
83671.2659604863
83671.4298805434
83690.6440672091
83690.3948044246
83724.4202764159
83724.9031099404
83727.0063710571
83726.9604245389
83753.0456704098
83754.2222505778
83753.5190914452
83752.6636874636
83777.7396997334
83779.1334451838
83772.3692506735
83771.2328573777
83786.6815797683
83787.9190585831
83796.0672564915
83796.3027385372
83790.5918779321
83790.3924322023
83784.0195411544
83784.3019194749
83777.9447705949
83777.6332060924
83773.5260416647
83773.7281999461
83767.6407031824
83767.4987985959
83761.2047924257
83761.4328608978
83755.522109065
83755.3195792316
83764.3170519446
83764.537887288
83759.6805207919
83759.5094011161
83753.4623374606
83753.6737330054
83748.906795152
83748.700018755
83743.2366875313
83743.5459952227
83739.5444878999
83739.2957185861
83734.8287893353
83735.1255578083
83731.5576822359
83731.4573656956
83728.9167278587
83728.7252213549
83732.3035548265
83732.4807824241
83728.525021361
83728.4412502069
83722.1996285374
83722.351424111
83719.6088011544
83720.2778657066
83718.699774416
83717.7210476889
83717.1418470723
83717.5225995936
83715.8686713789
83718.7995937501
83724.5656671394
83722.4875514493
83716.3503219654
83716.2538375983
83699.5456455696
83706.8143054836
83719.3984731875
83719.8644165367
83716.2911375879
83714.5898958833
83702.8788243645
83706.0233901296
83697.8590630594
83694.0501878578
83680.3132759167
83686.3735373582
83671.1135671522
83668.0324711615
83651.5786499279
83649.9212258544
83634.3539275993
83633.1202922238
83637.2788680652
83636.0166801507
83638.5975416949
83638.7050003463
83621.1302385257
83621.1106146114
83623.5486749374
83623.6440411627
83623.8525886323
83623.8967054466
83625.5039462388
83625.1870234825
83619.6631801803
83621.943164484
83633.9417064541
83627.1501770551
83621.8113990287
83631.7355344318
83616.0396759508
83613.1508719661
83622.2174797674
83623.7417644564
83619.0950868734
83613.0359983906
83608.500521577
83619.6399876432
83589.0032755372
83594.0743938587
83602.8102093806
83606.0286084219
83600.5229523097
83594.7730867675
83588.9159464876
83583.8372800724
83578.3084328441
83578.7037743295
83577.9913870146
83581.6677635231
83583.9391503825
83574.8963888295
83586.5667827085
83584.6100667066
83589.7060255434
83595.2141919649
83594.22742456
83594.4051706738
83599.4047676368
83596.1905424647
83611.7281814928
83609.0654306732
83615.6623334974
83629.4560869086
83631.0377755394
83616.736258519
83616.8113367532
83617.8450550511
83621.4054290427
83622.712328408
83610.9456063536
83611.9968561673
83611.8709197182
83609.1568710933
83621.2640994348
83622.8444605459
83622.177389873
83620.9793403794
83647.8860116318
83647.8940598836
83666.4063438523
83666.9116432993
83683.4492193355
83682.5031671324
83702.2042538955
83703.0094433946
83714.60979531
83713.8211532892
83738.0370328522
83739.9946245888
83750.7233431995
83749.2538996526
83774.8084646776
83776.6251461873
83780.9464317709
83779.2284087281
83800.2011570729
83801.6660719596
83810.4158731774
83810.5588396105
83808.3163812528
83808.0862449645
83803.701282854
83804.0196742002
83799.2274755606
83798.8421104594
83811.0279774369
83810.9907672901
83807.3183871641
83807.4051107919
83800.7820742977
83800.7585062837
83795.3293872652
83795.2715856532
83788.2957669612
83788.4562200939
83783.5268875958
83783.4244129526
83776.4793954487
83776.6000912048
83771.0867678931
83770.8945878615
83779.142363489
83779.2589193696
83772.6174046419
83772.3424968672
83767.0988147083
83767.296202225
83761.1342650146
83760.8083819033
83755.642073414
83755.8555616084
83750.2465985486
83749.9045514958
83745.3189264498
83745.6399914427
83740.9313990141
83740.5532309779
83736.4562899124
83736.4554951938
83741.4561558599
83741.4124975706
83738.2288866578
83738.09126317
83742.2347326491
83742.3283843925
83738.617916714
83738.6942664323
83732.9413441178
83732.4410751154
83728.0579041776
83729.379896401
83728.3724547242
83727.5627349767
83727.4924370089
83727.0753174866
83733.92826574
83732.8155871581
83734.0662443477
83735.5482548877
83737.9912599404
83736.8434289392
83744.6104943764
83745.6191676951
83742.1304056539
83740.0725212623
83738.5642322473
83740.4870885768
83735.6658853582
83735.3160206104
83729.0486325938
83728.7471950297
83724.0113226778
83724.2125445054
83732.8428999598
83731.370297894
83728.6741952915
83733.4505683332
83726.6831528666
83722.3831251058
83711.7135604577
83715.1570190539
83701.7833920168
83697.56478217
83684.1699854048
83690.7853789776
83675.5912202256
83669.43704436
83656.5235206941
83666.3565668028
83651.0135926502
83652.3593102877
83617.6662715816
83618.4760959211
83586.8964423295
83585.7352310747
83604.9637579281
83605.8308505582
83615.3051916564
83615.4358820811
83600.6411955483
83600.4328769417
83606.477269502
83608.263210904
83613.1221477133
83612.618305238
83614.4644073405
83615.044102959
83604.4733827143
83600.0967382215
83617.6309836961
83613.6918502228
83606.188327208
83616.5742855413
83579.544262697
83593.7581656275
83579.3850944231
83573.4331738263
83559.9210947374
83556.8371524866
83537.4976679885
83543.8827963702
83494.5559439102
83497.8345059691
83463.1487116037
83461.5391751602
83437.1621672253
83436.5600789416
83405.2151963967
83411.4250330653
83486.8033466092
83487.6271651521
83540.0945232633
83537.3989267875
83533.9742126425
83532.5463998753
83562.603184395
83562.1539271945
83553.6076515965
83558.9415117369
83570.2877158165
83558.3230616027
83578.9055065609
83579.6478014287
83571.2178249678
83552.607869159
83570.5129876562
83570.751584485
83573.9075914519
83577.8798916498
83588.3464485037
83583.1062125594
83590.1050123083
83595.4037653395
83597.7159355014
83595.0613782893
83600.9677321862
83608.919643406
83613.0070420536
83604.3463497412
83595.2734647873
83592.6619344444
83599.8172520613
83603.1632483614
83606.3380158891
83603.5125640843
83594.7466769308
83597.2008489257
83592.6314464517
83588.2417641572
83581.8993420059
83587.1109165651
83579.0327787475
83576.7830221115
83583.14851403
83584.7679635308
83586.7468118765
83585.313808998
83589.6417099142
83590.4294842324
83600.397130272
83599.0062627684
83604.9331223274
83605.9543766461
83627.2894061953
83627.1527209743
83644.8263928829
83644.6866951294
83646.0607686544
83646.7434635299
83672.8760685163
83672.0140319982
83698.0306700736
83700.0511318896
83722.3027045725
83720.2678192971
83739.3377413366
83741.2869245362
83764.4198100041
83762.5971919872
83784.3789286991
83785.5689484146
83790.7109017744
83790.6331802119
83800.5110049556
83800.4730733221
83805.18487494
83805.4132524444
83807.9863024631
83807.726137956
83819.8069121951
83819.3070267713
83821.3796673867
83821.812939739
83819.2841499073
83819.0394135248
83816.2206645252
83816.4372033808
83825.8499827379
83825.2543509777
83820.0944675959
83820.4400660487
83816.4842203511
83816.2048128535
83809.8284838842
83809.9816319013
83804.2814572984
83804.2254476506
83797.2897215586
83797.2333230309
83791.9457982361
83792.0227848678
83785.1807440246
83785.0004431515
83792.5990030611
83792.5892996317
83786.4909008106
83786.5026549639
83779.8752365769
83779.9294957852
83774.2484942694
83774.2350892485
83767.9606286813
83768.0892054421
83762.3071298974
83762.2542614193
83756.3830943079
83756.532638317
83751.2839142208
83751.1033457849
83745.838315042
83746.222351771
83751.7750186065
83751.4987112817
83746.7183983968
83746.6645052289
83752.0935649033
83752.0681846889
83748.6347094224
83748.4631853882
83752.7667711165
83752.8613002859
83749.0835536789
83749.1423318358
83743.1080972792
83742.5805799646
83751.1263780164
83751.6886835518
83759.0791155864
83758.6011473392
83751.4604372203
83752.4180928745
83748.2639071968
83745.9567679553
83744.3613877041
83746.6271095679
83741.5779761319
83740.6056046762
83736.007059002
83735.8028949859
83730.2205395487
83730.910221023
83720.1557286008
83720.3425349982
83714.5664287582
83719.0920020497
83714.5185936196
83707.5132589961
83709.2009245322
83708.3280053956
83696.9001087918
83695.9173985181
83681.5897503649
83690.702028864
83668.6962185437
83669.5971980842
83670.5706265927
83669.507041645
83652.6125781402
83662.6778502147
83638.0585227071
83634.9207136709
83595.3100909625
83596.1967161339
83556.9007510973
83558.7149639027
83532.8482802402
83530.1164729829
83561.9470940552
83563.1443873012
83585.6755714017
83585.3183850984
83561.222132424
83562.0266384381
83583.5700981909
83581.964730636
83592.1000566289
83586.736612601
83602.3470801423
83601.2695267127
83591.8292124802
83594.2862077359
83575.8737929581
83580.5946745486
83570.9571580281
83579.111498103
83555.9583884031
83551.9048845809
83519.5031055878
83516.5952524514
83493.8976514416
83491.4012621619
83470.1785313552
83474.4794124827
83419.1429063503
83421.2226136906
83377.5103055284
83378.6859911208
83353.2826319982
83343.9091662653
83312.4862382084
83329.4998643836
83322.8154845863
83303.8756551724
83364.9143300596
83361.708468353
83463.8060869742
83465.2215008975
83469.2485399189
83463.5624738878
83455.4746451065
83459.8662264957
83502.7042068542
83504.8634361041
83545.9287152886
83535.4766813682
83543.344489565
83541.4317842183
83558.2432343325
83549.866067994
83558.3352967927
83558.0165483968
83556.6799933481
83551.9441640104
83541.1096440125
83547.6392172019
83545.3669247983
83547.1918152194
83558.9387537996
83558.5237499193
83573.5316442248
83570.73204223
83577.447373966
83578.8499288052
83590.8032928886
83587.1753316881
83583.6040164829
83569.833771753
83557.5839516873
83571.4638324397
83572.9116452334
83573.0719023921
83562.7667978718
83561.6323390314
83564.7728785179
83564.7618218736
83567.576643257
83568.0302402184
83570.8373022467
83569.7893033461
83581.1496799823
83581.8699430648
83597.2392620538
83596.9748321688
83620.6164229159
83620.5471784169
83612.4171184927
83612.538716096
83644.5505593568
83644.1426100927
83676.1679895147
83677.1960367767
83712.8791951204
83711.3357048244
83726.0260473661
83725.8522378214
83722.1681539274
83721.9878549138
83743.6120866985
83744.1018847133
83760.3427494988
83760.1390447191
83777.0776188811
83777.3108767452
83782.6125821021
83781.0210172285
83795.5216924331
83796.6948342684
83809.4586767076
83808.3525159004
83815.3623227612
83816.0009659102
83822.222896764
83820.3694763655
83826.3387353667
83827.7687305052
83830.6366450214
83829.5716781807
83827.9168109058
83828.687652088
83833.1814445024
83832.0798551075
83830.1091030329
83830.9750855061
83826.3656383871
83825.7784968425
83822.173593297
83822.6549139486
83816.6426322684
83816.3465486108
83810.9905302381
83811.2385851556
83804.6925323381
83804.5692737347
83799.1771026541
83799.2710124141
83805.3158122874
83805.1454427878
83799.0000387849
83799.0786462837
83793.2053745159
83793.1361712665
83786.8465175139
83786.852334339
83780.937531808
83780.9497976979
83774.7273251505
83774.6715638684
83768.7026531577
83768.7687993269
83762.8543618885
83762.7230786134
83757.1037414613
83757.2231648843
83763.0307793092
83762.8867988154
83756.9813338319
83757.3110938168
83762.82295042
83762.5845169919
83757.5192917182
83757.4342427687
83762.7214538661
83762.7130439423
83759.0473199661
83758.7963334605
83762.7370098299
83762.8879155087
83758.6365352714
83758.4991851535
83766.7206557699
83767.0848541165
83774.0125587037
83773.4339852259
83765.1066886861
83764.7163050411
83756.8565820759
83757.8299735206
83753.1468836282
83750.7576319087
83748.9330867443
83751.335481164
83746.0240081956
83744.5603593117
83738.9870711649
83739.5051374728
83733.6715136186
83733.6941624561
83726.0786743285
83724.8553635958
83716.1184083332
83717.9282031338
83705.8400681669
83706.366251015
83694.1670184559
83691.9363894349
83696.3206327422
83694.5983432548
83682.8139789497
83683.277886107
83681.5471273684
83682.4454992146
83679.7225857971
83678.8536357489
83680.9722431305
83678.4244624874
83662.8142960221
83668.4352954543
83645.7002296282
83650.6346625291
83614.2033917335
83611.7236393606
83564.5597177423
83563.0892870636
83516.8500293558
83520.5945167164
83493.2056388968
83488.3416222449
83452.5482016285
83457.0405290105
83499.6950087331
83497.6224452988
83533.1300873016
83534.1237143997
83507.1653631039
83506.0446670507
83535.3975639858
83536.0155082168
83566.1779257833
83562.998904062
83580.1874638464
83585.4999988141
83573.8805701742
83559.9741621368
83530.9559117194
83486.8306356261
83441.5034756209
83389.7708554804
83346.2671569212
83323.0724014027
83321.1246648255
83304.8717828071
83302.6062243512
83359.1174994858
83356.963744865
83418.9876456895
83416.6467392195
83406.638410967
83405.5551403806
83398.7707022016
83399.7220433765
83392.6619518114
83391.5943366882
83452.1948571778
83454.081168324
83502.4278536638
83502.9073188848
83541.8791904461
83536.4690750235
83535.8758223206
83536.8523892939
83505.8415777503
83503.2707652713
83456.6699999658
83455.7204740006
83453.1791900443
83454.9426184996
83499.7948847142
83501.0060155176
83540.0719270393
83532.8446082784
83533.0976794068
83534.5841150221
83509.5773319353
83515.7411060464
83535.8805751191
83536.7261086232
83504.9329641792
83465.6583684644
83467.2261185838
83428.7066106151
83435.0453031119
83369.5172316984
83372.3272340031
83415.2813970537
83352.6678558003
83346.6186747627
83347.0785454845
83332.4410856572
83330.7270845559
83314.8448268067
83317.2491791797
83307.3609242189
83306.2721354856
83315.4901916313
83315.8941147089
83313.530605113
83310.5660235108
83309.6152714225
83315.4537616848
83310.7649517814
83307.6562156807
83307.1256478555
83312.9461304315
83287.5921719446
83296.4458210688
83296.8775263743
83284.4565448358
83294.6213789933
83299.3298994191
83305.1780991016
83304.2367234897
83312.5492223823
83312.6741534303
83325.1826192297
83325.273665734
83329.2698362401
83333.4904332805
83334.8221613445
83330.94405639
83333.6586576066
83335.5374184859
83365.5242387104
83366.2287840019
83375.1246494541
83374.714273828
83386.0855171732
83386.2670203124
83401.1443783856
83400.6067839193
83416.581137352
83417.3492642364
83434.0568459389
83433.0278466895
83448.4944280011
83449.7112697997
83463.7009725281
83462.4004370362
83473.5407879492
83474.7107772047
83484.1989951544
83483.5040027054
83492.3837123249
83492.1800627006
83505.2813765678
83506.2934326206
83527.548197651
83525.5653175852
83564.9581756517
83567.1309504682
83626.3546808091
83625.508050016
83695.4104131225
83694.7829504901
83752.9387961189
83754.6067493239
83787.3909980969
83785.5830047155
83801.400144276
83802.9394562285
83810.208298188
83808.7235668385
83813.770454498
83815.2949329236
83817.7992483145
83816.4341541908
83818.7454862287
83819.9224769671
83819.6914249291
83818.7388745834
83817.9452149569
83818.7515269781
83815.9446444657
83815.4154364866
83812.5739669325
83812.9406216551
83808.5379011319
83808.2366497414
83803.5926789173
83803.8074559752
83798.3405974033
83798.2528302253
83792.6954927586
83792.7451559028
83786.7372911739
83786.7151585287
83780.6950915725
83780.6552008169
83774.5373587614
83774.6220463548
83768.6738218874
83768.5941908207
83774.0349209554
83774.1012451593
83768.1420290518
83767.8668203559
83773.1528883847
83773.3342838834
83767.7584392454
83767.8799368329
83772.7054240707
83772.6623059793
83768.3872526531
83768.6977494371
83771.9958529437
83771.7878949015
83776.8210530212
83777.1627244991
83779.6497989847
83779.3931182994
83783.4608676862
83783.8036361085
83785.1220373891
83784.8161998211
83777.9916987188
83778.8532777776
83768.984267656
83769.2129439556
83761.5488067482
83760.7039587998
83754.2191291944
83756.0872401309
83753.6230656612
83752.1164783443
83747.9943280404
83749.1401150528
83742.2559843199
83741.8779481068
83735.8309296958
83736.210592192
83727.0519404317
83727.3911414462
83716.4004398677
83716.2434418978
83706.427642027
83705.333346811
83692.5179908125
83693.6468842962
83692.3077058874
83692.24806134
83688.6015365831
83687.6509983888
83670.8699770274
83672.8069200319
83666.3227226994
83662.5598927891
83647.316899529
83650.934416043
83648.3718842701
83649.0615829308
83628.0707985202
83625.0301945287
83596.541664638
83602.7455097232
83561.8808315826
83555.996868219
83518.6839982247
83511.4676203936
83460.0840431473
83466.7231681804
83442.6208973661
83434.816408392
83398.2485454432
83406.0322381106
83379.9908026625
83374.3086640847
83424.9124792058
83428.6035378048
83470.2218101871
83468.1969329008
83450.8165193205
83449.5174887724
83415.8512432863
83410.4707029352
83385.2971873446
83391.603091416
83327.8718569691
83324.6280114705