/*--------------------------------*- C++ -*----------------------------------*\
| =========                 |                                                 |
| \\      /  F ield         | OpenFOAM: The Open Source CFD Toolbox           |
|  \\    /   O peration     | Version:  2312                                  |
|   \\  /    A nd           | Website:  www.openfoam.com                      |
|    \\/     M anipulation  |                                                 |
\*---------------------------------------------------------------------------*/
FoamFile
{
    version     2.0;
    format      ascii;
    arch        "LSB;label=32;scalar=64";
    class       volScalarField;
    location    "1300";
    object      omega;
}
// * * * * * * * * * * * * * * * * * * * * * * * * * * * * * * * * * * * * * //

dimensions      [0 0 -1 0 0 0 0];

internalField   nonuniform List<scalar> 
207032
(
3.36598550838837
8.27055288321105
28.5219903891374
25.8065323096039
7.03433611995816
6.83459520599047
25.4349481770504
24.1323327130753
26.6476703412203
4.51399951404157
5.11762083038692
2.58169289733084
2.17017664130172
2.29018871163687
2.69036831073782
5.54696902759849
25.455332882018
28.3486804769648
4.68689191059055
4.87108580218191
30.1645808829056
27.163185306024
6.09206728153108
2.90678849257933
2.41255604386094
2.59134265715153
3.15763487338636
6.82464803690339
29.1525878720561
31.9069965527656
5.38601514630325
8.56099383142432
37.0413227835944
34.5727719120486
9.77692087220472
10.0642613766495
35.8781403466892
31.6733065416054
8.76536411791957
9.62916515762768
35.4636965207383
34.2073594256576
10.0514637715018
9.6484907793027
30.4639456587593
25.1981743034914
8.08167988819221
5.33443887968975
19.2693484552821
15.3436575079818
2.8927841087569
1.5186036393588
13.7386406885736
14.0712768468729
14.3850306866335
1.07608709520411
1.09084264922154
1.02279567476038
1.00357556104261
1.00224640457121
1.0011381618951
1.00461824421625
1.01643852801528
1.03082963324234
1.01220458125188
1.73826345846284
17.5347410838386
15.3108499389764
1.67928565774543
1.06975334918005
1.04183347670289
16.6687280163737
14.8780122012758
15.0809171324765
16.5571683388969
1.03051720682055
1.03791013349029
2.44196636866979
16.6743529242769
19.350125860353
2.38537953117513
1.16065665490051
1.20588765978702
1.21192149788104
1.16345905703322
2.93309410355836
3.54364156956979
3.54384844957328
2.9412983174574
2.09335960514883
2.34753303875331
1.21882585166562
1.16797090373071
1.06017269586421
1.0835252265848
1.31751341973264
1.18729320764571
1.27978775242988
1.39997215924381
1.44403082002863
1.37049513331405
1.4814701288673
1.580261939789
1.91363937935855
1.63361677956494
3.1753178133815
4.02859523803272
5.44021923435218
4.81559418731221
11.083748919468
47.6654600293688
45.6289707769383
12.0508815147647
12.6603237654479
45.3007557774995
40.9945673787836
10.9379348096098
12.0877725952274
43.6689166196351
50.3855159501228
13.0341605884452
13.6825713845758
50.6532881512913
56.7563727936076
14.6416885282527
14.6875823676297
62.250065694095
82.6835772393654
22.4016983050794
18.8694570655281
70.3245688459961
58.365389113691
14.8728423057486
13.803610001997
52.6305913562044
43.3352748336887
11.5375128727631
10.4216801860698
39.1426608767674
36.6858451291302
10.1162162075931
8.09201119593502
30.7338777143775
28.8062543915546
7.87200707881175
7.32123093702317
26.6742955448883
22.8752364272661
5.95889091720064
7.55187457653787
24.9937226128827
18.2468024013461
4.85812226372474
3.35675874902124
14.9408931435848
13.0727949852965
1.96762037895559
1.03819363360203
1.01054827243597
13.8826513731126
13.1540360336895
11.9403489462798
12.0348993807384
1.00269336582169
1.00926900429581
1.00318869428333
1.00106473877611
1.00254985651583
1.00907572526664
1.0110030462787
1.32777980967633
1.40775697913672
2.08352230261033
12.6802550632813
12.5438237489463
1.75959872336138
1.00575803667208
1.00167195876131
11.8498111798094
11.8081077782615
13.2079065698481
13.9064488342737
1.00444297493297
1.01019563643592
1.00066075268097
1.00040815899286
1.000115052144
1.00023778706525
1.00081491550051
1.00027084765294
1.0005410118529
1.00303227075288
1.00117761857408
1.00027399335548
1.00023523852998
1.00037418268075
1.00000216770966
0.999984872727986
0.999951164797603
1.00007087844645
1.00031007056919
0.999978266652097
1.00053503303693
1.00276583107739
1.04113015399642
1.01984772002176
1.00251329719146
1.00524084972677
1.0212643241132
1.01452978199759
1.02593625339814
1.03547728083476
1.05546074405763
1.04604422188708
1.10933455362334
1.14440380275779
1.18457304319505
1.14811681193636
1.21218058249561
1.25337433470401
1.26523824819315
1.22253765842932
1.37259512612544
1.4593272472751
1.47985314846749
1.39049476942855
1.85785083279042
2.23099719577149
2.31678382207374
2.03562877321471
4.89614865672772
5.45520346911835
5.41777089578466
4.88564190385298
13.7994146106898
13.4320014399931
14.0465640342807
15.5638887792788
14.5324837210698
13.1709125245571
18.8550874627547
79.4369426801663
96.1660158250083
22.1063276707381
22.7078966285163
99.0586077539227
83.4187361444298
19.6353440360956
15.1439399382111
68.1668502014781
65.303535014564
14.7192975960103
6.54651924004156
4.01959519485651
3.27982277963477
3.750458113581
3.58328248567041
5.08917756252271
5.0518108353252
6.73723497350709
32.6432979372221
32.1801308244037
6.70294620940925
6.66361023985736
32.3679252189463
33.0281328944718
6.82284391480959
6.77931149521718
32.3429637080237
31.9360786339568
6.69473179350785
7.25060026260442
26.4657063119223
19.2185740145065
4.84098057937913
3.30583289355661
15.2447389733648
14.8132104119589
2.54369133024184
3.5296233926867
15.7617807368714
13.4309526004147
2.17776373892602
2.02057360171964
13.7560680798822
13.9444160131944
14.9598405362675
1.00388392830912
1.01157341852248
1.00083351154952
1.00025756413199
1.00009209054362
1.00021589653654
1.00017906606425
1.00009213064871
1.00009048389783
1.00022584083707
1.000346064426
1.00008035916951
1.00000732275001
1.00030862755182
1.00009514226811
1.00003156921314
0.999942083166189
0.99994150228618
0.999937246028055
0.999918645585972
1.00008721760585
1.00040154662284
1.00360423275693
1.00134081817219
1.00060386387943
1.00095254607027
1.00864651815928
1.00494318538199
1.01970147566685
1.02871782663912
1.0384272492233
1.02898035605475
1.04788163928137
1.05462279460526
1.04674108010669
1.04089186116823
1.06531754377291
1.07178536824905
1.08220182089199
1.07150845227576
1.10402660218446
1.1161278802128
1.13750608277005
1.12277654126063
1.228694871559
1.27033795138733
1.29878641442065
1.25690048943773
1.28369298019201
1.32635104166546
1.35764095865576
1.3146795794122
1.52316994091902
1.63816908376555
1.66369821517873
1.55273779527226
1.88871836183195
2.20649345787503
2.20125523616594
1.92134643811997
2.11910605147127
2.34578316122449
5.47717595333449
4.99173795267507
4.96050905705001
5.43946753884271
5.89403982757005
5.56546563613336
14.9404098563499
13.3721965593504
15.3079848595431
17.2736160706685
28.6656881543334
22.3273975450257
93.6206820574173
113.255085474552
137.089215036254
105.478966854752
22.209136048307
31.2976154867905
18.0801943370842
18.4200073033893
18.433395224437
18.1360619277554
30.7264879330052
22.6661745297675
111.621483299908
143.453153953708
121.120390578069
27.6975997650902
22.0324144759944
106.350116349956
96.0473123831081
21.6246496157151
22.0033944792954
97.0504118317796
94.03010852184
20.5575713403711
20.6694158482631
91.2591260868949
87.0488765693042
20.656840925071
17.5933393185588
84.4956766494834
77.1019530327608
16.5276868054256
18.2648565076616
65.39160528821
54.649935962054
16.6764986145618
11.15548419863
39.7623338407858
34.9479250214976
9.31571496723107
8.35167750953595
32.3667760541011
30.2548398254414
8.264585903721
8.25384697803071
29.1212637671955
27.4230423669101
8.13451988427604
8.13000706761038
31.4657408526032
40.5448153001114
8.695124352021
8.36953677178906
37.4932155053181
40.9016822426757
8.34616829383453
6.83183059619451
36.6659037268473
36.0411230766431
6.78325554860201
6.77685255804259
35.8800352110131
36.4695073144814
6.81153539501067
6.89172590371694
37.5486173228489
34.316436526178
7.62727216113493
9.92753373565516
33.4948033959119
28.0937494800692
6.473034357954
6.34152097201701
27.2414632996004
23.3247362206226
6.29362672539413
4.77236077103677
18.8791714663547
17.6166127245207
3.72844371942714
3.22607705996828
15.6485547351458
13.4120558627974
1.77135793098097
1.41441157529455
12.500616272459
12.8236216108687
13.6192669005546
1.00347112005384
1.00924358850592
1.00797596225281
1.00297318308569
13.6044794448793
12.8124970498691
12.4972941864272
1.42104936076667
2.02120526259945
13.7715746518768
13.9329137676642
14.9140124224372
1.00339062101636
1.01192388924151
1.00125208956623
1.00031758030802
1.00022722381976
1.00053593728212
1.00029882378663
1.00010934517207
1.00008572235908
1.00033671916754
1.00060318848577
1.00009422037921
1.00006952793947
1.00212432832313
1.01789935041167
1.00177112167552
1.00074999700364
1.00018472927118
1.00429387803928
1.0146476400755
1.03657132822584
1.01301275786853
1.29171663438811
1.37531801302253
1.07450228465976
1.04165345650501
1.09480078262885
1.1357137431389
1.16529668674862
1.12098339497388
1.16231759329256
1.20810617459535
1.07012485456899
1.05894891352368
1.08870905164091
1.10051407945975
1.08152382261367
1.07374906322494
1.10674788920417
1.11629360938212
1.1061254573092
1.09843279121724
1.11574615583766
1.12624121034711
1.13676339012409
1.12253483402785
1.14764132470194
1.16240163270103
1.16249535258661
1.14757829347607
1.17554236899875
1.19147441741891
1.22605969868285
1.20885644670063
1.24698990603604
1.26743502496352
1.39285552051713
1.34962617900642
1.38324631307472
1.43184174610023
1.68854117863477
1.58402217304026
1.61934897949815
1.71873398458137
2.20529704339965
1.9586902290176
2.27183851782784
2.39647405402294
5.53634497314599
5.1351268980878
5.81808964503418
5.93056538966571
8.64821082597594
8.52636096998214
8.59794247870725
8.63476687027931
16.4800490373285
16.240767403962
15.7139773657669
15.2252309762541
21.5692445543682
98.3046759068931
110.430168104388
26.4279978842712
26.1761166137858
112.886394461996
98.3524547436435
21.4235514771987
20.4146137475791
93.2598886745063
92.1397502472116
20.7241746950648
20.4135856948406
94.7336563280368
94.1457900671637
20.6700920909467
17.4692051004057
73.9823250550666
71.8123069772003
17.3330094625845
17.1207471021636
58.7251755904859
50.1911580116316
15.025083906584
14.3024640391478
44.1336059984383
34.91182351083
10.253776068941
8.48489802900585
31.5332492812608
33.8494548572729
8.25308065485775
8.1828118458333
33.0287231909532
32.3938227379671
8.15737963855301
8.671073614754
41.2778069087366
40.9342386672257
8.33361809948504
8.34409275057863
41.0484707701685
41.9802684081625
8.38680712514559
8.4633498264261
43.5358409991669
45.4928926148664
8.68368342609471
8.09943320854325
40.450139544142
40.4160071123204
9.79235203113542
11.473293296613
47.774782265815
50.5829889864372
11.5673939939843
10.6763978001278
39.6699169525859
29.8998248156827
7.20486937873644
6.11469329205596
24.6102366055665
21.9958314493011
4.59383456556297
4.46619753215503
20.6590255740063
19.1420985797458
4.15002845848705
2.52967583437456
15.5314431968814
14.3688384719822
2.07563588068654
2.28248923505804
14.5219576178917
13.4060000049568
1.76206485534284
3.21135458273401
15.6657202271879
16.272539970697
4.0074905664159
2.76518530559551
15.2036095374255
15.273252589271
3.30452268592873
2.07517911032627
12.725749806915
11.9335937655942
11.9846806068469
1.00186573904772
1.00781003450875
1.00207834336823
1.00041462257569
1.00145552619107
1.00839457340534
1.03932090109326
13.1930631642491
13.8435919473027
1.01381767200967
1.10447330941814
14.3406538579261
14.124511540287
1.11384804683121
2.40041007253667
14.5973918539198
16.0448209388922
2.33212804445015
1.80921061424997
17.6605103085196
20.4609208045946
18.9785959413672
3.72595752851122
3.30442505320649
5.48067475274369
5.06282012989231
23.3117691170168
26.3736503730103
29.4749578553251
25.7990153989402
5.09878878846087
5.16671720333448
3.29684473810561
3.76700159078959
3.75921533481253
3.28897587362835
1.29615715223069
1.38422771314252
1.39485880961567
1.30264689856094
2.29234720277794
2.48258127709907
2.73177791341549
2.39338363246099
2.6306585586052
2.96335822307862
1.53092699752795
1.4308305045242
1.61572722650724
1.66342426441351
1.2596477984652
1.21715336034148
1.29703718771254
1.32801389510166
1.13503469156005
1.12184535364105
1.20850691801746
1.21681670211591
1.17149323296422
1.16020822836314
1.11515478964359
1.12626106030138
1.16091070068652
1.15090716309099
1.14358583304382
1.15437022200352
1.18907999240404
1.17772623423795
1.17821858966881
1.19379491959423
1.23207890451926
1.21550552991501
1.25800883865562
1.27793691803659
1.33307123086892
1.30218880053714
1.28507342028296
1.3164389885543
1.37068387645114
1.33014817218123
1.42110953352458
1.47600785522208
1.49317227616134
1.44043643526883
1.47065369580096
1.52306005717517
1.74239850773367
1.65270610479312
1.67104374457109
1.75626840761436
2.18820801105202
1.98324658241094
2.02788879132344
2.23474574257393
2.41786302701281
2.29246990127117
2.36147019373503
2.42243677753577
2.42263238358516
2.65174045832432
2.28584620729911
2.39791806809045
2.39708380593383
2.27109978735661
1.98138046015055
2.2068674763182
2.18428337952491
1.96282174134815
1.63930253548701
1.730255471536
1.72364235897983
1.63242436370029
1.74121078387997
1.78396282460899
1.81104402236871
1.81142917494535
1.81696227369239
1.74582016320301
1.74092400100831
1.73805113133692
1.73272855321824
1.80510541073435
1.81563278754808
2.10102659752922
2.05991667446418
1.92799455070268
1.83686865254458
1.84885403741866
1.79503580711986
1.72273917040762
4.21237894705622
19.6867721143757
17.5848428529119
2.8760259284573
2.65316899133229
16.6705224729368
17.7739322762837
3.16560232629832
3.10178499709062
16.2364914429974
20.8885569214778
5.54748900220976
4.08528583803225
17.932753232838
20.2404803651438
5.34926003807402
3.98548081667946
19.4065939766512
19.1073595856244
4.72770641888191
4.91648555252673
18.5196912000708
20.3521071706723
5.4298285430117
8.31378937927666
26.033227610785
27.3471629091736
8.9346406587979
7.58216966404532
27.5643559961902
29.8356782986946
8.18653901517701
6.67987425228978
5.91713918016928
29.3780132759347
29.6871696471295
26.8565939709454
5.42629310537768
5.19957166590089
27.84318459176
35.6875834375123
35.1727255919789
7.88681870146713
8.58830821851914
3.67390297661479
3.14113923091492
4.4082315718459
5.05613164450023
1.98743864331316
1.93313276558757
1.97195715868049
2.02617505917295
1.37603193264402
1.34239034839695
1.32106063447381
1.35493776841486
1.35984167302688
1.32502805520377
1.37342373531401
1.41054976107236
1.26230865457674
1.24328970397679
1.24657452652283
1.26033067763436
1.21088882350672
1.19507026566258
1.19124635581013
1.20840712989165
1.20028189183421
1.18854813269119
1.23542330909331
1.2481178336671
1.23183099582355
1.2192280450345
1.26776130753915
1.28368625198525
1.3457233035708
1.31724167170134
1.37437970637524
1.41413179070658
1.39228016331002
1.3521111022925
1.375332403072
1.41379679149481
1.44675640287337
1.41029746726182
1.39247082613013
1.4262114068731
1.42028521306096
1.38423879197095
1.46813024951525
1.51817474905259
1.54860336075592
1.49789825847678
1.5042150759927
1.5555872992375
1.7658354356567
1.67810217096238
1.70522405582224
1.78550773324974
2.19931543971716
2.00959968942917
2.07348385819927
2.26747137764094
2.45181919813838
2.32516681450923
2.54830913842268
2.54551132741128
3.93070693072243
4.13463040285599
4.17721890690607
3.95610357604402
5.90068974397771
5.82401262632286
5.85385401589506
5.90219975120859
8.56490264272126
8.5839832610072
8.63914032686922
8.58091204573646
14.8442973474647
15.5049714424796
15.4372381765209
14.7661982433174
21.5097312401912
101.503707456753
117.38555756412
26.15306081954
26.2487059161919
123.413284521736
106.255678417757
21.7019723548157
20.3989929852482
102.057890099121
96.8897622387865
20.3439940618048
20.6787327567626
104.003165488672
104.397909007069
20.7900527811935
20.7287510294115
98.7638434101528
79.8734814975871
19.757864981952
20.6011230992706
71.3359878310094
63.2448881666919
17.3020060350868
10.5952642419512
7.54937332705871
6.20215790763866
5.7620714514719
13.1434442879696
43.3331911275978
36.2007188217131
9.47633469083374
8.85523934212536
44.5507812508696
42.8710033289057
8.66813215561456
8.6574004597145
41.7638939803283
7.60601022740392
5.38968700053077
5.57535693511361
2.52641695477029
2.64655366849852
4.16055360937154
5.10618719088772
9.62977011641109
40.3058634840883
42.4446570000355
11.0237148938327
10.2791128569732
35.4945382206389
25.3377708442055
6.04201460483265
5.04803376811491
23.1097868345825
25.9291333773427
6.61919272304623
4.80098575244057
20.8877502044283
18.6576068431019
3.43435694836873
6.36462585294997
26.2697640100584
24.7672605591163
6.00457751444155
9.07336464827529
32.7478301600355
42.4668921345528
9.55643497189002
9.59194287322712
38.5014611366281
33.4325473757574
6.75753377066495
6.60978358804387
31.1274223632898
26.0396422996779
7.07456602761533
7.55710203279993
25.4633116145267
23.7326710960369
6.13888328691813
7.92260389398754
28.6101826928549
32.2169535940526
10.6040615757277
11.0713465554533
35.1013155463635
35.4542926067441
10.3168328902459
11.806694734323
44.9234289637455
43.2627041094521
44.108743166431
9.26798183136684
10.1104200109272
12.4855306683108
12.5572850826196
56.6005282359408
51.0613759180625
54.2124598254283
13.5930706757229
14.7624550343932
60.5147370737113
60.7837091477028
74.1749120987379
17.5492202843596
15.8474535065506
12.7075431738848
12.5911882309437
11.6145625342007
12.224822178096
5.09543705840032
4.48845292260765
4.49810057810461
5.08725773171269
2.16556065104233
2.06929795681379
2.12857413792176
2.21985447520111
2.07364909197967
2.02637425513094
1.38072966543317
1.41358448451789
1.46347253517348
1.43051826731008
1.4931391350541
1.52856157275983
1.47183762507741
1.43429190946614
1.29959758439499
1.32002453536045
1.31660299874146
1.30126809367286
1.24622424179705
1.26363811429395
1.25784542612934
1.23902187879272
1.29469548870989
1.31802849821111
1.30558494724678
1.28935364657289
1.34558393104699
1.37449046055798
1.45175351737698
1.40988374091679
1.44229772771678
1.4815689025139
1.52712080070597
1.48928337792861
1.45501605055564
1.48632548187575
1.48221819267353
1.44821466881398
1.42438119801918
1.45902303457941
1.50085562490523
1.46636701488263
1.44765989825663
1.48390653168373
1.46292641245963
1.42853813119343
1.41786419420842
1.45259903295094
1.48493107225545
1.44917403551937
1.52511891838535
1.5773071544193
1.58781319639382
1.53503665676979
1.70073067542049
1.78899974563475
1.81618968388712
1.73587063842283
2.03016313903377
2.21358974997032
2.30301769905096
2.11197731664764
2.35975881480204
2.49083708761152
2.57921117461224
2.59384671403958
2.64107821866192
2.61753869751076
4.5255665071601
4.73764433656187
4.69318941892689
4.45997983298421
4.75152191829257
5.00041238716607
4.92359578858804
4.64584567811981
5.93987321085954
5.90559882502754
5.97345414135096
6.01022983854015
8.69813830093944
8.74942377061108
8.8962341894146
8.86432410980169
14.7804113169196
15.4485755445944
15.5167583736383
14.8434887757132
21.9559865657274
111.871157724259
130.378146070205
26.4148322052665
26.6487402411615
22.2730345504362
118.315938658484
138.479159788741
147.693133037408
26.9319659977332
22.6546330085756
125.365494071814
121.432430831305
20.8964698651832
20.667364511253
114.604839865764
108.097488966287
20.5040505001177
21.9621392324482
118.483318891382
117.852806132641
20.9474024451785
20.8445462278791
110.823736974393
107.583089659615
26.216048858075
25.1082940913921
94.1803588465766
92.1542687128968
26.5633839570791
22.3466729882478
71.4826730186993
65.940156928114
20.6955709106319
17.506479747474
58.3816370199692
56.4694341852976
13.4933168862783
11.4876567095983
48.9817648818633
7.73038145115878
5.35702152610287
5.74394143154287
3.19057538552698
3.06373909398625
3.28817369675345
2.03386024189522
2.66707180112311
3.62034775655859
6.39402209814667
24.7253330773929
26.7270144922599
7.49107110834645
7.95995290583334
31.8115156581318
41.2825256370763
11.6922122577362
9.72337604955057
36.9611493120992
33.220975289965
9.77998952162973
9.04588810247563
30.4645969670687
36.0813329843609
9.10812402931516
9.56291412984386
46.7346989694986
44.5087282157696
9.34136207242502
9.37803377330463
43.0994238513518
42.4703055534139
9.2861080996402
9.20796704665852
42.6347706530236
36.1200888211419
6.78622921010515
8.26680211400474
40.1719071718357
40.1309658135952
8.23088729975758
8.23725288757659
36.7837809555485
40.0310492283585
8.51311487523676
8.22882685144119
31.2174466723783
29.0415558433488
8.4408448865758
9.4911906987874
33.3468999449285
41.4513489067861
13.9265668602271
14.6921597323158
46.0160340266491
54.4724239784527
13.8046075179211
15.9727466682267
60.4026913784467
66.5096396695191
16.2581802366016
16.161231743819
67.7218467603589
61.7105280591295
14.6413896133532
15.6248214140188
16.9693852017838
81.771783819244
63.9350662709854
61.7621936670199
78.5277119297397
16.7196130780858
15.5057545013857
11.0962915822903
10.9862781107612
4.76729405347325
5.35850448488766
5.14592477401815
4.64232146889119
2.19930430757354
2.28817978518219
2.12225541694956
2.07823024124018
2.13912602845281
2.18263437923649
2.25778686146498
2.21162582424644
1.56973687348895
1.61027616336898
1.54631927622862
1.50505353893398
1.36807003459638
1.39367620516257
1.38778703927578
1.36750275445737
1.30735821479255
1.32919018484222
1.4123808202684
1.37679521413906
1.35586796132379
1.39194118701493
1.48475952328138
1.43328406961808
1.47674492982998
1.52694776183328
1.59489046449566
1.5530243573189
1.51353741298661
1.54289184441714
1.61623403987369
1.58539256995253
1.55066766983819
1.593506736849
1.53497675001688
1.50429833517603
1.49277442714797
1.52938297489066
1.57866749597265
1.53900755285379
1.50617781363948
1.54246820514123
1.52086328024587
1.48271570169015
1.46111897854891
1.49776628978608
1.53027735531058
1.49097368650292
1.47829002818372
1.51632735197263
1.60393520137315
1.55025085738821
1.56372553702768
1.61978206619856
1.81145775554036
1.72172170959455
1.76429466021281
1.84692610459412
2.22943719715849
2.048918195547
2.14821661265431
2.33976071138596
2.53425292253556
2.39631601103894
2.434068381623
2.57793652478316
2.65551530370823
2.68338366042116
2.72903504143959
2.69589578469201
2.73603832457614
2.77229202742931
2.82085278630261
2.77942538925237
4.87207890532528
5.16038629079172
5.07994388336919
4.76436800785248
4.97870706528008
5.29234230331341
5.21107634497347
4.87319355569801
6.10473371913913
6.04511149034759
6.10466359370603
6.21332938268779
9.06074617947944
9.07145192800401
9.26558318798212
9.28932926755087
14.9527260557317
15.6375334517534
15.8067617016635
15.1126629464015
15.3221412639292
16.0177297835831
27.2659322921672
158.190615728953
133.063004899468
23.0978298734426
21.1685053440744
128.539279779432
145.003272278219
22.5026345845079
21.632441928123
141.318375080889
132.791413157613
21.2908718829025
21.0938166526745
125.002361094147
120.575494813546
25.2033033331873
25.662207958285
113.825456025578
138.602120135035
30.6975781765567
31.7271889488156
130.212018964165
132.068218260856
32.1391766153481
32.4320142052425
118.997609764312
133.11289072406
31.5382211587356
28.4150265958018
25.031617971911
27.0297778793567
109.658982015994
104.816417107034
26.9085447076266
26.3627954646993
97.4916066005511
94.2012915970759
24.8801614735032
24.4645139749826
97.2566946025192
101.719698530843
24.622801431368
17.9258397623228
71.4814033518811
62.3281806440727
13.8221290938455
9.46785085512028
50.5700756011714
47.8784912223435
9.02611228771529
8.35217608110098
43.461435076579
51.6988793425279
10.774239628904
10.7201951667787
52.9110986949085
50.7315369407904
11.4942484490639
11.7727759142299
52.6271481982687
55.1842930395089
11.9373670560112
11.0679390644142
47.3698246396747
56.0687836057049
16.3641447640133
13.9248781430682
48.2736014247684
39.0794227085071
11.6218671773576
8.50286413792535
32.0231904484376
29.020541328718
7.81755846387576
7.02525593594711
27.6784649509268
29.2247961918674
7.84893026401053
8.19555593374125
34.2614220534111
46.4279093514135
11.9459803527112
18.1298861331827
66.3087152578904
54.2808126387556
15.8657017604679
12.7237577237935
47.1390332999806
41.2209737374434
11.722727310819
11.5141245481035
44.1655661018369
51.6608991387928
10.1398965309187
9.79065802920934
49.0313604673277
48.9220480399058
9.99763450912148
8.02300592456186
39.8174301128357
44.5508106972441
9.76854423143518
9.12048096372862
42.6502776575176
41.0679904704536
8.66150666986225
8.39187035790929
40.1715922005301
40.8965941751142
8.68014592034654
8.48121192327267
32.7582572907037
32.0187149127648
8.73233821330583
9.9895597751646
38.1422146048683
52.3277258952131
14.0790799017001
15.4375607166041
66.9663473499456
69.0924584136407
16.2383041543246
14.4744039370003
61.2387036565806
61.682053833705
14.4945818958503
15.5930053599397
16.7209569508284
77.8326219993193
61.1120351165908
61.6453706438211
78.8299339276494
17.0177663898266
15.9663557177627
11.4415069635146
11.1649616458407
5.17959266648816
5.78085799266593
5.25066558671982
4.79249173200029
2.39650330597007
2.48530984959975
2.62759953681061
2.5182429173435
2.29259518550455
2.35934048826277
1.71653306977396
1.65522588205841
1.58343875248244
1.64197627519319
1.49049454226569
1.4472687833785
1.44503310622669
1.48145453944534
1.61598919257606
1.55488680702035
1.4728507522464
1.52781361932167
1.57470650058411
1.53637160691799
1.64377744764315
1.66693059309404
1.59617941370147
1.57512307642943
1.69271331934782
1.71545450708672
1.70773116769472
1.65417024369107
1.7948847180761
1.85751863828972
1.71507262180063
1.68203232196637
1.6262229252149
1.67261255463193
1.59188157514636
1.56043877092424
1.63078900662511
1.66320274320904
1.63397495716559
1.59121309316566
1.54684533747548
1.58520991399352
1.55766547164549
1.51626097181617
1.55078482465212
1.59630234074472
1.56168256352435
1.51991722453356
1.50568942412804
1.54621596839823
1.62851701273771
1.57365439656775
1.59131923670345
1.65081300219781
1.83364971694027
1.7423816075151
1.7921006159939
1.87771570898005
2.24665996502994
2.06831941222885
2.18477478227104
2.37669131961405
2.41288424152492
2.22080189355595
2.47332748284243
2.62413921576639
2.66927571261663
2.51268037721955
2.55283112466015
2.71363269092906
2.75508417422154
2.5917494064974
2.86797025509238
2.82184643636205
2.86688054240136
2.92021091511184
2.97003278552143
2.90950881275319
2.95369822071769
3.02367163257503
5.40676635770343
5.08020162844497
4.97189282526007
5.32346764006914
5.50086406927457
5.17129922948341
5.05467265947622
5.41345265668597
6.15463095412461
6.32918703695152
6.44295348548124
6.1962600971751
9.46754547550076
9.54384358420512
9.81309229730415
9.66222264902466
9.82980292944169
10.0790512789033
15.5738957099367
16.2612008925039
27.6620674288744
170.142867805122
141.569194273723
23.5871702539561
21.4864142793953
136.072964085443
155.145386731518
22.7748368107672
22.1709253804181
150.51373441324
149.597628448639
26.851291007443
25.4830104488652
137.550916979877
128.391072989234
25.1360697617364
30.8933202555622
157.092708526994
143.109101664045
31.6736079126519
31.5662891982756
134.222419326544
102.87744268265
27.2724269227121
27.0560131441119
102.861803657601
96.1052610365512
26.0448973826101
26.2887876300029
104.330291541088
101.961298792998
24.9605040173539
24.5941642235471
107.501790112792
103.610158878374
24.4473340703666
22.2245083898952
99.303565847425
99.2609532443216
22.3282309291097
18.601518830776
74.5463545182493
66.3273008136316
14.5034135639563
10.0560732699352
53.26298042861
47.1156383756426
9.07240723716166
8.65594304824846
44.9564250582799
6.2233284069524
9.5322216562461
9.50471023289671
11.1270284917858
55.302230081358
58.8157007947742
12.1146335946468
17.410070548679
68.3301551652905
63.7803419772627
15.9352256930792
25.36876221679
88.3402388697635
78.1510978742089
23.4717310039814
18.0498674909217
58.5782114998757
45.8369581570641
14.3834421165471
10.0535517331408
35.4584839721319
30.5215954081891
7.91559398503812
7.25311289067796
29.1254732216142
30.4243395593422
7.97343279077868
8.41043019520213
35.6325050235369
48.7961553500686
12.0528167022501
18.7361257648792
71.8897327301759
91.425421261431
24.4673479001988
25.8254856517599
119.809750427538
114.077807372587
25.2033886668516
25.4785971543006
110.63531081055
101.300405423314
25.0592156851637
22.8836379957604
81.8898624896607
59.6739491277035
14.411652635681
15.2715077529197
60.5996548268384
52.9330934989368
13.5803569370107
15.3294009541307
57.2604113204849
48.3289440101914
11.4614154286609
11.8052225789836
48.8836207353773
38.5784024585206
13.4591664523262
14.5339155927358
37.2999957002888
44.4345839531113
17.2028728952766
22.089458077505
64.6782929766774
84.2382534447194
22.1271559069408
24.8289854066893
91.1237452527379
83.3966760305723
24.352570598436
29.6854006867731
33.5679064011593
133.314064325893
92.1645491921369
88.7934732468002
126.654740868627
29.9486985598287
26.892087933825
18.0065387473345
17.9005177668867
13.5897098265898
13.1349388226749
8.71765402960075
8.47490695688619
7.82769817953726
8.30737341422447
6.98429057014146
6.55715647399355
5.33425661854532
5.67472116229262
3.92487112788043
3.79575593631728
3.66289566183188
3.77079972722864
3.54186215628083
3.44313936464067
3.21705118752383
3.30434987940854
3.07877769047861
2.97502560709892
3.04242092761839
3.12429992431449
3.25463426833003
3.14445493850993
3.22899380789892
3.33213302323832
3.46712558462723
3.31478440092148
3.34542433969659
3.46772748175851
3.53554991286358
3.36141418221286
3.27661396048729
3.40710796073537
3.11920894731859
2.99321948076548
2.82693695725511
2.94256524229789
2.51972068251106
2.47122697409622
2.26246767198558
2.35354416410046
2.04615786607772
2.00235624663181
1.85759292009487
1.91180526002662
1.75746376723454
1.72329128310807
1.65633851595039