/*--------------------------------*- C++ -*----------------------------------*\
| =========                 |                                                 |
| \\      /  F ield         | OpenFOAM: The Open Source CFD Toolbox           |
|  \\    /   O peration     | Version:  2312                                  |
|   \\  /    A nd           | Website:  www.openfoam.com                      |
|    \\/     M anipulation  |                                                 |
\*---------------------------------------------------------------------------*/
FoamFile
{
    version     2.0;
    format      ascii;
    arch        "LSB;label=32;scalar=64";
    class       volScalarField;
    location    "1300";
    object      p;
}
// * * * * * * * * * * * * * * * * * * * * * * * * * * * * * * * * * * * * * //

dimensions      [0 2 -2 0 0 0 0];

internalField   nonuniform List<scalar> 
207032
(
83523.6038880636
83537.2289214706
83558.8378491146
83536.2353708697
83522.7764337996
83512.8791044877
83500.9264659607
83492.1303669079
83496.0806281415
83507.5519389656
83507.6250663346
83503.9455353919
83504.2107604567
83512.4726419262
83512.0243422441
83520.2620736839
83521.7773044321
83520.7626507348
83521.0819265033
83531.3477086999
83539.673885625
83544.1480665134
83531.3090261414
83522.8419089682
83523.0732693146
83530.2622308633
83529.5872588763
83531.7200675847
83537.3161476348
83536.6793510026
83532.1308579545
83532.9834892312
83534.4814114818
83533.227627734
83531.8102347991
83529.9834319957
83536.446264585
83545.5832406918
83533.0609942144
83533.0315684008
83546.1212093967
83530.8217868515
83528.3234372552
83532.9637728008
83547.9283670054
83489.9639372673
83502.5069618303
83488.717891316
83465.8047411375
83471.0816866465
83486.0852271463
83484.244332111
83459.4617127323
83555.5335919939
83554.3770914254
83517.678613612
83509.9185848389
83502.5351309003
83502.546167245
83503.0829158799
83502.5126066858
83501.5643189255
83503.1449540483
83497.2294123055
83497.0030070172
83491.5790072031
83490.1069593839
83472.1880874979
83488.7661376475
83507.6918347245
83501.8376381445
83523.0311824334
83563.3105800225
83547.4393022399
83526.6754963409
83509.9991295728
83513.8792352708
83488.7541805333
83478.6020561167
83484.5321767871
83491.2256889815
83495.7977459382
83494.6435608263
83495.4050065694
83496.9831751253
83497.0586438782
83496.6661901562
83497.9957599225
83497.8385279236
83499.7532435801
83499.9913070383
83498.3236217096
83498.8277908238
83501.9280025916
83502.1164404794
83508.8730209957
83507.8455966394
83516.2726611474
83515.8590990255
83524.4779211054
83525.510011515
83533.4624569248
83532.6682661374
83540.57606053
83541.050386754
83535.5573294774
83534.9581422227
83541.1893479183
83541.6935030713
83536.6796804039
83535.8575763611
83533.5826745441
83536.5659922593
83535.3520578628
83533.2309601534
83523.3087622169
83532.7097043408
83533.0749525778
83537.0468643617
83552.7206287361
83536.2256817111
83537.1987564696
83547.0613221964
83544.3405948211
83539.4597595556
83539.2490542033
83541.3673930241
83538.5866396971
83538.2803500748
83537.2728879529
83536.6449328685
83535.8963729988
83535.6405527992
83532.1132206549
83530.8217267207
83529.4595667777
83528.3362400881
83526.990960824
83528.3219010348
83529.010207956
83526.8343823523
83524.2755718202
83531.3594463448
83515.162194778
83519.3626239585
83518.2655878232
83507.958492472
83548.6928670446
83512.9251992791
83505.9114830438
83501.9206225934
83498.9892280756
83496.9252362175
83490.6258905045
83488.6160501551
83477.3927961791
83487.4140299838
83499.5118770983
83506.9638814411
83524.4596008412
83503.609109946
83494.7804490222
83510.2998760656
83498.8666295268
83495.4575659612
83496.8616271433
83497.9966597846
83501.161151212
83499.3690422732
83492.8409446253
83490.6590225636
83492.8479400434
83492.3721686372
83492.8192555669
83491.265404056
83492.2718250344
83492.8058407234
83495.0702540322
83503.0103981139
83490.2525427396
83488.7139310755
83498.2653497686
83492.7439078814
83490.5440816637
83491.0883444022
83491.7228066041
83493.2032272306
83492.8686724236
83495.2072604753
83495.4152616113
83497.5551757238
83497.6428915498
83498.2162272125
83498.1403738189
83498.5609752657
83498.4793270481
83496.1445017202
83496.3244789925
83496.4597222632
83496.2863266126
83496.4440422299
83496.619253577
83496.7313608146
83496.6062819256
83496.6362668728
83496.9974690183
83498.2259793032
83498.041589489
83503.2185148948
83503.0757803114
83511.0485983219
83511.7852019802
83518.1080766073
83518.3486672335
83517.090803708
83516.7760024421
83524.964182947
83525.5377202437
83535.1488808876
83534.5520579712
83541.5819520797
83541.8695706252
83549.6597948792
83549.1200138637
83554.1249015891
83554.7017782022
83549.7842064021
83549.0642843123
83552.4197996067
83553.642275172
83549.5258129558
83548.4822917821
83543.1442579993
83543.007324929
83541.2167243545
83541.768389874
83541.410729857
83540.9408597416
83543.7635848252
83543.7084578461
83538.6443179694
83535.2405409
83538.699735355
83539.7438875723
83542.4952179178
83541.1121452227
83538.2120173486
83541.3911126392
83538.7773894232
83538.6149818972
83530.8017573539
83537.1209422915
83542.0274930486
83538.8707403332
83530.8083856236
83518.2618290892
83504.5252997875
83489.1993617627
83481.5331572264
83473.3260224979
83476.6923581443
83472.0131313593
83479.4838657821
83491.8916123569
83506.2889190097
83502.2810987869
83493.0741585059
83496.7038347209
83493.5620177701
83505.5041970106
83502.9881924241
83497.3109724142
83484.4054520413
83488.7974463275
83494.1982874843
83492.7378459922
83490.9444560557
83491.3530862291
83492.106032058
83491.9060097153
83492.3234300561
83491.3320473308
83491.5504838466
83490.3372259259
83490.8045721705
83483.9826248162
83491.6161865649
83489.4317968321
83487.6676955463
83489.7439958758
83490.2118104336
83489.1120183327
83489.0942896261
83491.0771658163
83491.1120713596
83493.2125980248
83493.2757767027
83495.3232257424
83495.1120438469
83493.1211606541
83493.2756191879
83494.4145946356
83494.6285751006
83494.460009118
83494.2676653595
83493.1316197169
83493.1759102478
83492.9083362693
83492.7938032827
83491.3849929201
83491.676521275
83494.9094569117
83494.6949555733
83496.3338813626
83496.562759625
83501.2594577973
83501.4167488297
83511.0444751827
83510.1164269649
83517.9927192759
83517.7617945501
83518.5789423768
83518.8170479031
83529.3291598024
83528.9779998797
83527.4462215105
83527.8000296212
83539.2731321953
83538.7352786972
83548.6158008423
83549.2606810832
83546.054968068
83545.4164566608
83553.4085455073
83553.7521342962
83561.1864129834
83560.941421883
83568.8622456792
83569.040931749
83562.470370095
83561.8770830284
83567.2927426967
83567.6932016721
83560.4227876003
83559.7544077472
83564.5947681611
83564.5010592115
83557.2144373609
83557.3181735297
83550.8524036422
83551.3040157204
83546.2640014998
83545.7066684072
83548.2140150264
83548.5690878277
83545.6934525998
83545.3594356692
83546.5990682511
83546.6527236052
83544.1644999067
83543.6270997363
83541.4538072128
83543.4862749532
83545.2761960686
83554.0567414063
83544.5962865149
83543.2630143194
83544.6183303153
83543.4522009456
83543.684321347
83544.8181669619
83540.2038636832
83537.9885129131
83529.123593966
83537.5479222205
83542.5097380345
83542.839415423
83541.9034212146
83542.2057787086
83545.3201489157
83541.3475931505
83537.3378947666
83532.5656809403
83534.9777481914
83536.1852863094
83533.1518724835
83531.1057643965
83533.3321309557
83536.7795727602
83539.8517828032
83540.3759883603
83530.2424981047
83539.9327350565
83534.0206405387
83530.5714964695
83531.0158388434
83529.6449150853
83519.4256060734
83519.970094136
83521.8695482753
83520.9891926328
83522.8316567122
83526.5326339261
83519.4960279854
83516.5325037588
83520.8638809371
83526.7190102191
83514.1181725364
83516.9717067426
83515.8180251144
83521.4737812492
83523.6938969504
83514.9436458175
83514.8062737223
83529.5715900744
83515.1615396165
83509.3108293555
83504.4414506512
83513.3652059272
83502.9741086414
83496.9038031137
83485.4284248101
83482.8537057946
83480.1958594372
83479.8069229663
83467.2397756614
83463.1822697193
83442.6129187494
83456.0692747215
83438.4523823655
83432.3777114196
83468.3526606126
83468.467108174
83480.8711606044
83475.5267224938
83493.0508710514
83489.7316923463
83491.2005727163
83492.2510682737
83488.805961427
83488.3603358852
83490.8406893219
83491.8450222406
83488.9965254584
83488.8298576068
83488.6942085447
83488.396965677
83484.3552017164
83488.1912445015
83487.4304900167
83486.8713034392
83484.9653305117
83485.2959823854
83484.9028590187
83481.5895741954
83487.1532959915
83487.3028357735
83486.1616522601
83486.7855107255
83477.1813707724
83482.2817954305
83483.1588289992
83482.3605739198
83485.2504417242
83485.4511826786
83487.1695121038
83487.1124051293
83488.9286650927
83488.9803430636
83491.0993015903
83491.1281536427
83488.64423065
83488.9900243558
83491.8071920463
83491.603869731
83492.9584114734
83493.3275441306
83494.3477921716
83493.6377699971
83492.9394386749
83494.3256659199
83488.8847135779
83489.1277692325
83488.2503203736
83486.572840421
83491.455046094
83492.0312086013
83495.8979361786
83496.1584014002
83506.1661629515
83505.6195107516
83511.6818531817
83511.3352929602
83515.5935404636
83515.8294414228
83526.1515706507
83525.6396677845
83528.2661395279
83528.6954865995
83542.9347313784
83542.5205968584
83542.3660018828
83542.9399826546
83556.6728328175
83556.1631954912
83553.3787132904
83553.9815638634
83564.2805015049
83563.9277296589
83558.7127672992
83559.0194052427
83568.3363873224
83568.137144903
83577.4474598628
83577.5349946476
83587.1423712416
83587.2214351815
83576.5681960583
83576.5840483832
83584.2622372483
83584.5022046931
83573.9773246586
83573.6675259513
83579.5481920144
83579.8880765162
83569.1688926096
83568.6688884698
83560.7534529986
83561.0799188201
83553.7768683985
83553.7227407966
83555.7480534735
83555.8565162788
83549.0519198835
83549.3854270843
83548.8174748228
83549.0398813102
83545.580591189
83545.7245987841
83546.8016275921
83546.1224300455
83544.2638024632
83545.6975751685
83544.9802143279
83545.0036986705
83544.3554040441
83543.6208781501
83542.6564036103
83543.1010938028
83540.6139187196
83541.1287459616
83546.1373662322
83542.9085932097
83540.2221089809
83543.2124087035
83540.350994734
83537.2002487356
83531.0069420233
83533.3633708176
83523.0331889011
83529.4419681426
83523.4180813046
83519.8475532979
83514.8916068037
83514.5004141925
83502.1927542508
83502.8772156469
83509.6178650312
83508.7652446289
83512.1896279431
83512.870269429
83504.6554859203
83503.7795146681
83509.0055542889
83511.5445326962
83518.2802864329
83514.2955854383
83505.0487277266
83505.172926359
83502.9164009794
83500.1731607828
83492.8619592582
83492.8931421447
83487.5121344732
83487.5047980257
83478.0351578464
83477.0395603342
83466.734388363
83466.5433530298
83454.7542461951
83457.1936789561
83450.2620404489
83447.1249240328
83429.1647309762
83425.3903294539
83429.2488637802
83420.6475995861
83407.4807078329
83408.4723055221
83384.7497212557
83385.4560947792
83428.6329378934
83428.3484903878
83458.5175468784
83459.6358313605
83474.1899789469
83471.7769117092
83482.663217336
83483.215250264
83480.0556356365
83478.7487985409
83485.3707177948
83485.7481157844
83483.5779648956
83483.094653829
83487.9007180312
83487.2510793364
83486.0469967725
83487.2112508653
83483.6508981738
83484.3684324944
83483.2905150191
83480.5061605842
83479.6942228972
83482.9398150251
83482.882038686
83481.1808975203
83481.0200581083
83490.4515138263
83486.653891732
83484.6140593269
83487.5813971605
83488.5546844959
83490.7468610119
83489.0233585623
83487.1725383517
83487.9742428472
83502.4296636553
83492.8503674489
83504.1029911422
83533.2157053637
83538.5504340846
83497.7655244003
83473.738337563
83447.5113308639
83460.9183569978
83478.3220635398
83482.1093359996
83478.6696852725
83475.406630607
83468.680928307
83479.6254474902
83482.9103602343
83484.8291759603
83480.9983326612
83463.8861261517
83476.8670811961
83476.7053449929
83461.2511291892
83485.8601696733
83486.7514034762
83488.268032431
83487.0892338402
83485.7847261046
83487.6769236898
83488.6261628682
83486.0313469726
83490.0328805291
83490.9636278116
83490.530948457
83490.2944232498
83494.0974404902
83494.4289474791
83500.9977021026
83500.106650601
83506.9608714419
83507.4754277317
83515.9531538924
83514.976027507
83519.8440064227
83520.5995002293
83531.9720391349
83531.2154278981
83539.4372140615
83539.8148741509
83560.5620189981
83560.6730726425
83564.7083946734
83564.6839289628
83558.8263924285
83558.5050266916
83571.4488401818
83572.0104512407
83568.5170504858
83568.2137207872
83580.8888720649
83580.9934803699
83574.9965738438
83574.7858835545
83586.2107494144
83586.2189597353
83598.0673836194
83598.4354806199
83611.0399307019
83610.2557244097
83596.8792458013
83597.2734797371
83606.555037076
83606.2781211516
83591.4901079715
83591.6837515712
83592.3371053439
83591.8335661103
83593.7108842545
83593.7922230284
83587.0704375381
83587.1108865685
83580.9129470001
83580.9780726909
83575.2343766249
83575.2262106857
83570.3756609335
83570.460314865
83566.5123638948
83566.4238258384
83562.7063120917
83562.7767701602
83559.7056147694
83559.4192341643
83559.8247653018
83560.4960760348
83566.8277004724
83566.2893710231
83569.161547168
83569.7547484154
83575.600329257
83575.0899861649
83579.6094507143
83580.1608113739
83587.6414731283
83587.3560973584
83587.3835575217
83584.3873588803
83591.2213797211
83591.5247787784
83589.765691722
83588.8216911362
83588.2113819877
83586.9183836468
83582.3649605462
83570.1367700166
83556.5816780451
83532.3604709487
83522.3089153356
83494.408763142
83463.5049918771
83449.624801541
83428.2480760265
83422.0124097264
83413.9081883168
83414.0524350339
83448.5811119974
83450.9267700533
83470.060287725
83467.4750698212
83463.3364200592
83465.7402565382
83477.0688558539
83475.6784730512
83474.8976769548
83475.4513744328
83481.768383422
83481.6662801169
83481.2210814263
83480.8214839076
83481.2848577126
83476.3697077783
83475.4807375969
83481.8678478674
83484.2044232048
83485.1767140835
83451.7201843802
83476.4799299223
83488.8825274756
83473.9951731368
83462.5962488643
83491.791083436
83498.7526395878
83483.7923230682
83521.0450370037
83507.1960464425
83504.8565715348
83506.4909254389
83505.0811292757
83505.693047415
83476.6305210802
83493.9974049055
83494.7865717143
83483.5631263039
83528.8003911368
83523.0221679815
83514.957252488
83514.437478173
83508.5677866017
83509.2751762241
83513.2552068809
83512.3821722544
83523.2583181235
83523.8544987866
83533.471295372
83533.2445758194
83539.0931319823
83539.3033466499
83548.3761935452
83547.978904529
83557.3910635934
83557.4563350175
83570.4704120904
83570.6896937571
83581.4322802394
83581.3362435142
83588.011978185
83587.9516096069
83589.8784862988
83590.1426199276
83590.3765026099
83589.8749635678
83585.6377249159
83585.9274557639
83602.3085750667
83602.4298626532
83595.0895497633
83594.9194488591
83609.6697753849
83610.2628294772
83625.870754038
83624.7649411038
83639.5883046253
83640.1256636431
83622.4177414806
83622.0377633836
83623.0449347614
83623.4223681735
83626.2048330935
83626.2062936563
83616.7224537492
83616.6706680034
83608.7732254818
83608.7633794231
83600.2957850855
83600.2917684161
83602.430921635
83602.4464679806
83595.981841093
83596.0206916185
83588.2119864959
83588.3640351762
83582.517447262
83582.5004193438
83576.0837797456
83576.2880081605
83571.6213903262
83571.5464810788
83567.0030381314
83567.156776371
83563.6837331165
83563.7196987927
83561.5157930115
83561.0244720077
83559.9120847809
83560.3625831921
83554.7538397134
83554.5812191433
83554.7283750269
83554.6787025586
83549.8708459879
83550.1962678683
83550.7684408408
83550.4532602018
83546.1510200079
83546.9482546179
83545.6927077108
83544.8551786122
83541.3403412711
83540.0709722951
83541.6980740416
83542.7465110065
83541.4101050326
83540.4110715049
83538.8839268906
83540.1332468065
83537.3188454941
83536.4834445601
83537.6149288482
83538.3150278717
83534.3529564639
83533.569585928
83529.57332865
83530.3200053393
83533.052784139
83533.443389949
83524.6934765773
83526.4419547961
83517.4479938273
83508.7817808505
83525.2602803821
83523.9260715363
83528.5429948894
83522.0229072953
83506.4079698959
83491.0628354086
83490.3580407967
83490.5481379413
83499.7626496905
83498.565865925
83486.651861698
83486.8092469824
83494.8559763703
83494.3347599117
83499.4326212615
83499.8608369025
83499.4508235143
83496.092875922
83489.2044696005
83485.6230875154
83457.0173045497
83439.0112586736
83393.1913007749
83390.8965300261
83402.5347150699
83356.7653932299
83354.0590760795
83332.0396497569
83328.1843016681
83324.5394268349
83329.2501814982
83361.0430206483
83356.0894923261
83338.7306020327
83343.0241051755
83400.6442545415
83401.8367607883
83440.5032693136
83441.879773289
83433.0596287237
83431.1189668187
83466.7316495319
83465.0688758228
83470.5523573088
83469.9756235268
83487.1876022296
83475.1086521159
83476.0335377246
83477.2451608558
83487.738771678
83479.946700201
83482.8239120876
83483.8650001563
83466.9828753107
83480.9999573335
83487.3870251994
83481.9286397932
83526.4456700053
83496.5075767421
83500.4058023949
83493.1800844158
83532.4980309807
83517.2535153898
83523.6996745645
83550.2955959011
83544.4578741765
83520.0382862824
83512.6072100166
83524.7170524769
83516.1880173879
83515.9752020068
83512.1286701924
83511.6857792863
83505.8629010483
83506.6627463175
83506.4437710763
83505.083194163
83507.5413687748
83504.1805456927
83500.1025315087
83501.7726906889
83503.4124223134
83503.6224951368
83502.7410894841
83502.3922027698
83503.3535889849
83504.2219126792
83506.692416122
83505.6056297022
83507.6998020123
83508.4931168384
83518.4701939037
83517.8915837191
83525.5224496268
83526.0258422957
83528.8480845615
83528.6374028187
83538.4379779984
83538.5896268303
83548.5908653961
83548.5883821588
83558.7717466088
83558.4693485241
83569.194759033
83569.8145376478
83585.3642702186
83584.769946025
83599.4141483256
83599.7422624081
83607.7165959291
83607.6098584216
83610.5920820485
83610.5680252328
83609.205988639
83609.2916905837
83628.4158546523
83629.6802939724
83620.463017203
83619.4838882074
83637.4536919823
83639.2210840179
83656.3870738006
83655.3518863609
83659.7445922177
83660.3121820272
83664.927285689
83664.9307288796
83654.0589021769
83653.9970238771
83645.0612220054
83645.0359627608
83634.3808690593
83634.2481399863
83636.9778223923
83636.819880806
83629.0054124944
83629.2615908628
83618.7477947009
83618.688998963
83611.3534485563
83611.4583604749
83611.9034224443
83611.7670024326
83603.3883910446
83603.3379330366
83596.7667930822
83596.7781435785
83589.4839019612
83589.3677041485
83583.4737817021
83583.5029444829
83577.3790782622
83577.2132601298
83572.2835983159
83572.3992604753
83567.7194580962
83567.5290795453
83563.6772424134
83563.4930383789
83563.7498078772
83563.8175610143
83560.9963553101
83560.6340080621
83559.9180456165
83560.0645222527
83560.7793069192
83560.4931539769
83559.6665037372
83559.7475623287
83554.8005960708
83554.8118473522
83553.6535109106
83553.730041303
83549.3303167513
83549.6650847401
83548.085386647
83547.7958408749
83543.400632489
83544.1835872893
83542.531113051
83541.7749756135
83538.8007050463
83537.782124751
83539.1135460077
83539.9936601488
83537.8014132727
83536.5886754966
83535.7431655754
83537.0138146875
83533.8583152046
83534.6341252534
83533.3588850755
83532.5281761921
83530.2460622554
83530.5050487478
83533.8919528932
83533.6760898933
83535.7370962863
83536.1852890905
83532.5338589295
83532.5930060088
83531.0234250718
83530.2654990443
83530.5398913963
83530.1079874374
83524.8697104887
83525.2740686504
83525.0373821069
83523.8832363713
83517.8721501778
83520.2414623141
83506.3699440873
83495.3146280429
83488.3135692783
83494.0606778657
83479.4111013452
83478.5130795649
83462.2594211764
83462.6376591273
83476.3677392742
83476.6904133977
83474.0568942432
83467.7115673791
83453.696488548
83445.7983288082
83440.398971434
83411.1351111561
83390.1869156289
83358.4934100596
83308.6410233853
83318.5638529526
83326.3048931669
83321.6609957198
83312.3824454966
83301.9570377533
83303.4468329693
83288.0072732564
83292.3635988855
83312.7829135932
83315.0410082208
83348.4626027234
83341.9716836569
83380.5422703382
83375.060798506
83382.8051866251
83388.9087813618
83386.3018129532
83382.9918209204
83417.2030955964
83416.0325702919
83435.2791151537
83431.4319164551
83461.3540805096
83458.4799806542
83458.137121578
83460.1511538836
83465.6002930776
83461.683319245
83463.051945634
83464.958555034
83485.0783556853
83479.8197063044
83488.4073951849
83498.9393993385
83492.3559221046
83485.4815595183
83487.3723285637
83489.8796286312
83487.2904596156
83490.735895707
83494.7448215578
83490.9217759475
83513.6506529951
83505.3001512262
83513.761919547
83531.8627695157
83507.8145094595
83504.7651626022
83500.2139890146
83509.5043289004
83502.0557688034
83497.6264453058
83490.2004992537
83488.0819953068
83495.0051677941
83494.2431170827
83497.4557130736
83498.3346535361
83497.8415523498
83497.3132725494
83489.7777182546
83490.8440730818
83493.1490751827
83491.9845169418
83498.9874620894
83499.9157718707
83508.0152367545
83507.5130911272
83518.2868941729
83518.860690874
83531.6497756976
83531.5149818118
83544.6567498671
83544.6680095953
83551.1385614085
83551.2715675746
83557.347068191
83556.8877211241
83580.2094217569
83581.3420063895
83601.2815137352
83599.7916086962
83617.8990980331
83619.6151011271
83629.334935506
83627.6250438904
83630.9616214725
83632.4840919298
83655.1660932022
83652.3423828797
83648.4124999914
83650.7493727656
83670.1499139514
83668.5678758015
83674.6606566666
83675.4057175657
83680.899441758
83680.8080975598
83671.721449759
83671.641647348
83673.9570941248
83673.1510929788
83667.5524982537
83668.3681998559
83656.3495205591
83655.9703013271
83648.1559730739
83648.6185160278
83647.8443157081
83647.1518292451
83636.6090096243
83637.0190409265
83629.1774908511
83628.814280924
83619.1948781384
83619.3408689502
83617.5295965461
83617.339554878
83610.233918095
83610.4356094617
83602.7228931627
83602.7046931998
83596.2452393824
83596.2999791582
83589.6025309983
83589.6139388794
83583.6567223024
83583.7000526535
83577.8425679246
83577.8801636445
83572.6708436217
83572.6443966337
83567.7421221575
83567.9585304241
83567.9129700965
83567.7421587787
83563.6893092888
83563.5518433281
83563.5714266427
83563.5949870795
83563.157528205
83563.0499667351
83562.7144079485
83562.7200988604
83560.0580503746
83559.7662905429
83558.5898449704
83558.6465045258
83558.6185967792
83558.3163789192
83556.9807972179
83557.0282564869
83552.2013822372
83552.0567972806
83550.1711740394
83550.3140759925
83546.0514718023
83546.3494980711
83544.11287327
83543.8559161814
83539.5813152715
83540.2848090002
83537.2369049304
83536.5895685617
83532.6064826971
83533.2148988569
83530.4836858834
83529.6821814202
83528.2417766413
83529.160788859
83526.2313701665
83525.7679195479
83521.8173960594
83521.6319986094
83518.294063241
83518.5738222289
83522.5874546385
83522.5177299315
83526.7714433718
83527.2433132086
83522.0852431903
83521.0115952512
83525.1998391147
83527.985037167
83524.4040484338
83520.5239782731
83515.8420908309
83517.1849399288
83539.8930288776
83526.4009160123
83520.2184803141
83510.7291877985
83531.8082687895
83524.1791713259
83520.8817588481
83515.0421317031
83520.07141863
83527.8706660292
83515.7633199231
83516.860932603
83509.4297355581
83518.2742239947
83506.1338238566
83500.1476335085
83485.8113607671
83484.5314894876
83482.9868769545
83479.0871632474
83465.8529619411
83462.6943272536
83446.3896625206
83447.1199849567
83435.8622185974
83436.0641394987
83450.4828589435
83451.7552229651
83436.6766766817
83432.1035509779
83433.1351211037
83427.1099485315
83406.976701682
83410.9804729867
83406.1324042226
83400.4510415037
83369.1027008175
83367.4005945571
83346.4124231758
83346.0756608868
83333.0865119981
83328.604193181
83303.5437951412
83310.2465414223
83308.6425323441
83307.4418576113
83325.6313270259
83303.0533486517
83295.4637652549
83308.2710368199
83324.5569056442
83310.1086195518
83301.0385818306
83311.1511288484
83302.0766743074
83293.6466818178
83288.8837339332
83300.3233696345
83291.7402232248
83281.7675968953
83273.2702473946
83279.3905180034
83291.9184298679
83286.1924313962
83312.8343641007
83322.4421698482
83320.8718617687
83329.974497773
83327.0038321518
83317.2364895105
83316.0924053999
83316.9873140312
83353.9942982082
83354.2250462888
83347.5834540062
83347.9006522804
83341.3471801292
83341.0639000743
83334.4509630979
83334.4988776577
83380.4510659602
83379.51429197
83414.7638130038
83415.9045621963
83442.257986679
83441.9703874774
83444.9292977636
83445.2008267379
83453.0038460783
83453.5116291131
83459.7721263735
83459.8176145275
83468.2295019784
83469.1090672521
83474.1014604605
83473.5540539506
83482.2973799297
83485.1281043382
83484.0591425884
83485.5630110622
83488.4991967811
83487.2038054286
83478.1766793038
83479.8658660298
83483.8805851326
83485.3787913028
83482.3733420838
83480.9518303699
83467.9215259552
83469.7047719287
83473.2802169231
83471.5308180349
83481.8551656422
83482.9741004634
83496.676673683
83495.9564980408
83513.7756452644
83514.0446877833
83535.0565753154
83535.1644357011
83532.8699795619
83532.5932642769
83560.0642560348
83560.8200272902
83591.1689310699
83589.7685165641
83614.4225769344
83616.4251316594
83639.370027356
83636.6838999424
83648.7642561366
83651.7104432929
83671.9809152295
83669.7518104257
83674.0070933396
83676.040533128
83685.482776187
83684.6203414185
83689.0528175584
83689.4528561348
83685.2943682901
83685.0716363337
83683.9200121426
83685.4605561565
83683.513322895
83682.1336768774
83675.7515434262
83677.6588032609
83670.9874833447
83669.5523708566
83665.038067304
83666.1928258055
83655.6238072514
83654.7894918929
83648.9658892085
83649.742711209
83642.6994065125
83642.0517201043
83632.9942240279
83633.406864522
83626.0446981024
83625.6967688973
83620.4634797161
83620.8294650682
83613.7945112513
83613.5541656647
83607.377520473
83607.5931857962
83600.926987009
83600.8235032381
83594.8849695537
83594.9767518235
83588.8775676606
83588.8519049835
83583.1555299363
83583.1945834468
83577.7306195997
83577.7445804478
83572.615739144
83572.5868293764
83572.1757657385
83572.2295326469
83567.6739182702
83567.4784269514
83567.0201175414
83567.1606791841
83566.4887236308
83566.3225382196
83565.4454114846
83565.5405385258
83561.8412177195
83561.9281664992
83561.1567577657
83561.1477430331
83560.030033221
83560.1218798035
83559.1251666922
83559.1121182565
83556.4485002437
83556.7239167816
83555.0279841017
83554.9901833475
83554.2914319885
83554.5770570458
83552.8190173116
83552.7495028201
83547.9722797461
83548.256140379
83545.4575787769
83545.0745947223
83541.1057258236
83540.8520224248
83536.8535725314
83537.0638199148
83531.6940224141
83531.5919578974
83527.377426431
83527.9567331365
83525.1706014855
83524.3321705872
83522.7428079217
83523.8201484998
83520.8447783993
83519.9966937667
83515.7865682441
83515.9311074225
83512.4311134259
83513.0107135129
83511.4753338324
83507.6537693697
83513.3156538373
83513.9589195806
83517.3440806831
83517.0178908364
83510.7707012111
83510.8307289597
83505.5179923776
83505.674826681
83508.6685236368
83507.9412466142
83500.9222311848
83501.3372892206
83508.2107298302
83508.9340554249
83503.4979411365
83501.8707828168
83510.0403690329
83515.1138409747
83503.3288069311
83499.5381589549
83492.8713010817
83498.6362243665
83489.5803183436
83486.4364131169
83478.2982525278
83488.9237616504
83466.1268130919
83467.8683826828
83452.1252006727
83455.3757624299
83430.9353662445
83429.0664402414
83414.5875062094
83416.2315206293
83399.3985845131
83396.6337591833
83420.6467945377
83423.1143511297
83415.6015979094
83402.4280231943
83372.9479646376
83379.2730493859
83381.0167176486
83356.8929430788
83354.7465881292
83331.0555924471
83334.2815589304
83324.2661087951
83323.5871915329
83306.3928321241
83303.0035498265
83307.8515197326
83301.6348513867
83298.249391231
83306.6254324113
83288.7111067391
83285.0882465662
83279.3115939244
83280.97468701
83282.2014119875
83277.242009328
83286.3375117888
83292.2119942661
83286.5592420416
83280.8331134928
83277.6324898791
83284.0368650728
83278.9570582024
83272.6995977786
83265.7651392695
83266.9495616347
83261.8441561218
83262.0558625234
83257.2121220367
83257.0711350589
83263.1317177589
83260.5925782336
83264.4827023172
83265.7446593903
83267.8878642959
83260.1256677062
83255.726080321
83252.2604651882
83286.991720166
83283.5220361983
83270.2769285865
83272.6017857406
83253.41920118
83248.9269580271
83228.626236874
83233.1560478838
83283.9844122452
83280.6290528868
83265.9952942815
83268.8668452908
83250.7738006176
83245.1991015156
83221.284169284
83231.0477784953
83210.7386088969
83199.5915486085
83181.3101440981
83189.0805253258
83216.7134024527
83210.7755746936
83207.8561686912
83209.8111604976
83207.4930779561
83206.2634346447
83206.478773362
83207.2374082431
83207.9504832112
83207.2671633205
83279.0445155322
83280.5283980543
83281.360229092
83279.9896762231
83283.2895547867
83283.6630434955
83308.7985692219
83309.7866156587
83315.678487985
83315.1360228362
83324.9933460695
83325.1301886648
83338.2206971565
83337.9567095961
83355.0335297196
83355.3563257163
83376.7610980704
83375.8755985929
83398.8202013989
83399.9917239647
83425.381145519
83423.8130926638
83447.0770659363
83448.7900180706
83471.4281987097
83469.433382459
83487.2469830471
83489.2674626441
83505.2667278199
83503.2373627094
83514.6472121081
83516.440814946
83527.320277442
83525.8312668384
83533.6741148498
83534.6582583653
83545.4645085842
83545.0561904942
83558.0132769746
83557.9924376504
83576.4937666618
83576.5110222457
83601.1495902562
83601.6062710305
83623.9797659613
83622.94890415
83640.3648181444
83641.5216468771
83645.8279996108
83644.7368383789
83644.7566687213
83645.6329591368
83639.6346006293
83638.9028045189
83633.6582997199
83634.2755956382