/*--------------------------------*- C++ -*----------------------------------*\
| =========                 |                                                 |
| \\      /  F ield         | OpenFOAM: The Open Source CFD Toolbox           |
|  \\    /   O peration     | Version:  2312                                  |
|   \\  /    A nd           | Website:  www.openfoam.com                      |
|    \\/     M anipulation  |                                                 |
\*---------------------------------------------------------------------------*/
FoamFile
{
    version     2.0;
    format      ascii;
    arch        "LSB;label=32;scalar=64";
    class       volScalarField;
    location    "300";
    object      k;
}
// * * * * * * * * * * * * * * * * * * * * * * * * * * * * * * * * * * * * * //

dimensions      [0 2 -2 0 0 0 0];

internalField   nonuniform List<scalar> 
208838
(
0.015006401275997
0.0150046180790828
0.0150016069173962
0.0150014168154758
0.0150020708054109
0.0150019854594482
0.0150018385532204
0.0150018211910743
0.0150026541773451
0.0150028189870628
0.0150031747788783
0.0150035366372499
0.0150034594849002
0.0150043977197449
0.0150041256596264
0.0150038976714235
0.0150036791114152
0.0150035512791577
0.0150272366116914
0.0150254888086864
0.0150281276962044
0.015027181591241
0.0161404822927344
0.0162313394613983
0.0163297768985479
0.0163504215276504
0.0156039767274806
0.0155962797390749
0.0155550380851146
0.0155120831777202
0.0156797257826583
0.015015300725741
0.0150135277518115
0.0150126759975095
0.0150110507292454
0.0150103808380229
0.0150065077019393
0.0150071337851186
0.0150076328393342
0.0150076491579483
0.0150075466330766
0.0152913916152679
0.0152993535454508
0.0153095416702061
0.0153183841023404
0.0153097159512671
0.0153026482916464
0.0157122670528486
0.0150170271854807
0.0150090045989455
0.0150025619076921
0.0153281668506131
0.0158467499052458
0.0150144490633853
0.0150260697560969
0.0165063081592633
0.0165336077095405
0.0150240308227942
0.0150130066108677
0.0150030157465243
0.0153625873657611
0.0158947678051707
0.015853965482642
0.0153233662418465
0.015001284752949
0.0150092163470635
0.0150037744412201
0.0150016131412064
0.0150023698281948
0.0150037641158923
0.0150036997140176
0.0150023926155725
0.0150002873277081
0.0150007960709692
0.0149995365750521
0.0149998692741092
0.0150001491580922
0.0150003579537797
0.0149999544633312
0.0149995923537076
0.0149994400014404
0.01499932959643
0.0149992656339221
0.015000215724772
0.0150002131206767
0.0150002146973047
0.0150002110940117
0.0150001335571319
0.0149993202896929
0.0149993718618755
0.0149993656092307
0.0149993601882128
0.0149993600068482
0.0149978999894232
0.0149978934240734
0.0149979401430627
0.0149979933831035
0.0149981946665446
0.0149967652081768
0.0149965591494023
0.0149965076062426
0.0149964600280538
0.0149964992598441
0.0149970489777398
0.0149971766389551
0.0149973758713514
0.0149977310418002
0.0149984472282106
0.0149979107905344
0.0149969881437712
0.0149963773178403
0.0149961519220541
0.0149959129503443
0.015003757857548
0.0150039560478763
0.0150039756570942
0.0150041090311491
0.0150053855149155
0.015073398486436
0.0169447769511761
0.0167918808281904
0.0169420633944828
0.0171054958083732
0.0171395766618111
0.0150400228026582
0.0150360810689157
0.015039687254162
0.0150374431613163
0.0150534652293343
0.015056786858955
0.0150530019108537
0.0150576864334626
0.0181525840952029
0.018098681365724
0.0178494046609646
0.0176184663376081
0.0177264852554359
0.0150857701144181
0.0150938179927674
0.0178937660189113
0.0170477136682139
0.0150839629067745
0.0150301748810736
0.0163089937725808
0.0162929433536543
0.0150322323770403
0.0151175474394672
0.0172975948482779
0.0172888738970042
0.0151706600688629
0.01508180151905
0.017116956817721
0.0164077599795679
0.0150229798870336
0.0150220663367934
0.0162490839192946
0.0157551046350842
0.0152666637537447
0.0150021300962989
0.0150101854467448
0.0150066595334099
0.0150018329386204
0.0150006595472724
0.0150032088253635
0.0150014455802731
0.0150003961947645
0.0149998680504662
0.0149996230861158
0.0149989513243184
0.0149995984592199
0.014999444733446
0.0149985599630894
0.0149984299916028
0.0149993534664482
0.0149992328138427
0.0149982439704121
0.0149980170247444
0.0149978370339371
0.0149977897458206
0.0149977487619145
0.0149977451530499
0.0149991955317801
0.0149991971707206
0.014999204041247
0.0149992155606518
0.0149991796357121
0.0149992216745879
0.0149992485913781
0.0149992380050651
0.0149992325069932
0.0149992309395986
0.014997967951415
0.0149979725310014
0.0149980051048555
0.0149980521117467
0.0149982047244293
0.0149977676120116
0.0149977385691553
0.014997735604669
0.0149976297483757
0.0149976384367084
0.0149967610437755
0.0149967568139266
0.0149968479178425
0.0149968673639869
0.0149969782588973
0.0149973086953829
0.0149974068343132
0.0149974491920286
0.0149972577502309
0.0149972552876892
0.0149964216249053
0.0149963283956759
0.0149963936858686
0.014996315177948
0.0149962957339959
0.0149977708124443
0.014998118723919
0.0149983932722576
0.0149981845112648
0.0149983079339179
0.0149974436868797
0.014997711857002
0.0149979796948826
0.0149985948765359
0.0149994082908955
0.015007748838471
0.0150055553070069
0.0150056242542747
0.0150058699246082
0.015005738317792
0.0150104283896579
0.0150105858998918
0.0150103321479049
0.0150098475887885
0.0150123421368188
0.0151013872744396
0.0185706273966099
0.0184929074683404
0.0188180612494392
0.019165128878372
0.0192418748487791
0.0150730624532616
0.0150692355765898
0.0150740913148048
0.0150700750525831
0.0150910023072371
0.0150944630538545
0.0150884482068715
0.0150905921562885
0.0205321597100821
0.0204279240440402
0.0199596411579086
0.0195163719392506
0.0195461259689017
0.0151202342623705
0.0151180725171875
0.0199527350207668
0.0188532403495645
0.0151055278764963
0.0151262818414997
0.0192939774439045
0.0193265535863535
0.0151967157079265
0.0151807929763179
0.0182361281384676
0.0179539680728399
0.0151034881344878
0.0151528854771528
0.0178730741603176
0.0170102445982366
0.0151206086423029
0.0152863911783535
0.0168979194543034
0.0161215546536069
0.0150379621463193
0.0150309606570146
0.0150119425526004
0.0153769493648332
0.015984491364134
0.0157353337094317
0.015292244774999
0.0150072706137938
0.0150217942392373
0.0150125071750496
0.015004195565398
0.0150019557688887
0.0150071276096026
0.0150027681472713
0.0150004465671111
0.0149999542508195
0.0150008002786986
0.0149993676083222
0.0149996816790499
0.0149996961135404
0.0149992735834995
0.0149989033533529
0.0149996008452352
0.0149994159664446
0.0149985237633418
0.0149987184654983
0.0149994705170378
0.0149992802531545
0.0149984238445343
0.0149988362041315
0.0149994298525599
0.0149993643157721
0.0149993719718073
0.0149993617101245
0.0149993575924243
0.0149993562172477
0.0149984349833019
0.0149984395558266
0.0149984599767335
0.0149985146700076
0.0149986368615776
0.0149988383336052
0.0149987938345184
0.0149987586356781
0.0149987019497566
0.0149987003349644
0.0150002616857851
0.0150002490353295
0.015000431601499
0.0150003498610264
0.0150001717285235
0.0149986323490434
0.014998839011149
0.0149989391541116
0.0149987130319398
0.0149987346738884
0.015001849011896
0.015001782642075
0.0150022612074512
0.0150019435685519
0.0150013842244577
0.0149994473815482
0.0149998968164983
0.0150000772651586
0.0149996452608792
0.0149996600031266
0.0150051035475475
0.0150050211872623
0.0150058737895154
0.0150054754830465
0.0150045657145316
0.0150019896465403
0.015002796667147
0.0150033339575427
0.0150027523335061
0.015002937010423
0.0150018327138644
0.0150021404752178
0.0150026877630931
0.015003150758072
0.0150035430670013
0.0150112480502712
0.0150115930952818
0.0150114945033687
0.015010400746247
0.0150101273615432
0.0150185126334966
0.0150187249118939
0.0150189148825553
0.0150178209805556
0.0150197378636527
0.0150308846299961
0.0150303759855074
0.0150323041574109
0.0150311907776654
0.0150310172647221
0.0151097857148037
0.0151099924312328
0.0151170316857561
0.0151141305971088
0.0206138541217461
0.0211914258520603
0.0217978665525883
0.0219323676551389
0.0234773744450422
0.0233094597525361
0.0225432803300201
0.0218108498548141
0.0151417148241048
0.0151441567577726
0.015136002821743
0.0151317723454768
0.0150495164331658
0.0150495717520315
0.0150520635507418
0.0150489991210538
0.0150469992231821
0.0151692804759708
0.0217563830311008
0.0225308905627723
0.0151522985627042
0.0151322289898135
0.0211783545877396
0.0219871925760272
0.0151395824102825
0.0152283163358479
0.0219969443116945
0.0205799451347361
0.0152131896145341
0.015143951732084
0.0199866533567606
0.0189086414792793
0.0151228646208241
0.0151876364991048
0.0188430144401511
0.0189967623479765
0.0154509198046921
0.0153527363389404
0.0178780330109146
0.0178177190639434
0.015295400811798
0.0151692624920273
0.0168980492387425
0.0160817831141091
0.0153854142138002
0.0150141097747466
0.0150383831742676
0.0150247301826911
0.0150091698515633
0.0150107731275725
0.0150218762553545
0.0150224820527916
0.0150255999508905
0.0150286452242621
0.0150254903694671
0.0150270277703848
0.0150234419754871
0.0150143546469644
0.0150205234651034
0.0150305830046993
0.0159717197811439
0.0150161832335397
0.0150090037372382
0.01501909930413
0.0150204627250357
0.0150058557215068
0.015002265950035
0.0150040756991542
0.0150012640364831
0.015000564060908
0.0149999850613692
0.0150005559587877
0.0150002426161277
0.0149998202211665
0.0149997921553059
0.0149995448615545
0.0149993203488702
0.0149997606968005
0.014999660534428
0.0149991703536603
0.01499951926075
0.0149997927156793
0.0149996170942621
0.0149991432085743
0.0149995710396156
0.0149997829236816
0.0149996241912087
0.0149992944723244
0.0149991144011072
0.0149990277775592
0.0149989761987781
0.0149989681196119
0.0149989640494855
0.0149995253379857
0.0149995265368593
0.0149995292742181
0.0149995387261626
0.0149995506076656
0.0149997292573019
0.0149996828908561
0.0149996791963876
0.014999675129685
0.0149996755427121
0.0149994957489909
0.0149994954193475
0.0149994927981205
0.014999532248566
0.0149995854006896
0.0150001902505546
0.0150002037410598
0.0150001884522633
0.0150001620722153
0.0150001643419424
0.0149994381292165
0.0149994413301197
0.014999485845737
0.014999520755536
0.0149995311869828
0.0150010706804283
0.0150012610287564
0.0150013558590972
0.0150011908605252
0.0150012003865588
0.0150049792384909
0.0150049277221625
0.015005356874152
0.0150049637227559
0.0150044804971068
0.0150034590551833
0.0150039508239883
0.0150042803272626
0.0150038342135154
0.0150038893177715
0.0150107169060475
0.0150105688442198
0.0150114758343078
0.0150107933541386
0.015009924803865
0.0150072379083636
0.0150082341030104
0.0150088582738438
0.0150079432890761
0.015008106796858
0.0150191284128109
0.0150187797651359
0.0150203563193519
0.0150194080144689
0.0150178242024886
0.0150141577782141
0.0150156553418636
0.0150163196242743
0.0150148576506301
0.0150150887531429
0.0150117086980131
0.0150113929668547
0.0150126096301609
0.0150117300885852
0.0150102259507889
0.0150242288973868
0.0150266966285024
0.01502801457471
0.0150258807351832
0.0150264355668343
0.01502371629195
0.0150238419981655
0.0150257319230523
0.0150251652727429
0.0150237581147388
0.0150427918161827
0.0150455872814374
0.0150472796268742
0.0150443067515856
0.0150444393167482
0.0150748772592025
0.0150743611494907
0.0150779201421537
0.0150753042391829
0.0150702721948779
0.0150696796993576
0.0150757309010847
0.0150804352412584
0.0150760180915382
0.015076069926401
0.0151577950856846
0.0151692075671453
0.015178594453001
0.0151760722491043
0.0231073096782913
0.0240178375140761
0.0249681434138487
0.0251716868394427
0.0269416102508015
0.0267030239176771
0.0255549970340262
0.0244515283371133
0.015211723022682
0.0152138989925519
0.0152048464094358
0.0151884948546503
0.0151069239813002
0.0151069513043749
0.0151112623456062
0.0151066995430804
0.0151009105595457
0.0152380068384044
0.0243164811465053
0.0256140297027159
0.0152216425606844
0.0151815755379733
0.0240117170069425
0.0254042675673161
0.0151871388208933
0.015265293424523
0.0253590670578761
0.0235827020035794
0.0152451795225248
0.0151830733858115
0.0225608786278399
0.0212014930766318
0.0151618874168178
0.0152833909223935
0.0211835429341776
0.019941483951361
0.0152349228143252
0.0155583208783814
0.0202889174796981
0.0201162613542692
0.0154339338214065
0.0153699800915952
0.0188698528181913
0.0182153794933245
0.0152273208871895
0.0151566300082065
0.0174564218369359
0.0166561780808293
0.0150781724970068
0.0150435389072384
0.0150157845236552
0.0153734971349488
0.0160751599220578
0.0160506649936055
0.0153594026424499
0.0150129580699243
0.0150455644209004
0.0150099626626662
0.0150017473146355
0.0150003086655199
0.0150025617394255
0.014998847463266
0.0150006097320489
0.0149998336956131
0.0149998460454712
0.0149980785441114
0.0150002005792502
0.0149997203609423
0.0149997481574602
0.0149997771257336
0.0149998368493502
0.0149998198438762
0.014999656300545
0.0149998173662412
0.0149998808478111
0.0150000353285366
0.015000215899467
0.015000179560136
0.015000041274268
0.0149998477831123
0.0149998132430254
0.015000142687697
0.0150000175773344
0.0149997517065485
0.0149996892423717
0.0149996795813659
0.0149996834431616
0.0149996823592837
0.0149997047767285
0.0149997242414165
0.0149997299044094
0.0149997361069079
0.0149997011039578
0.0150005371459189
0.0150006287268831
0.0150006543355289
0.0150006125630726
0.0150005825377482
0.0150024691174187
0.0150025026947908
0.0150026688148529
0.015002326096841
0.0150020589989308
0.0150017855577439
0.0150019571266966
0.0150021306065779
0.0150019679141632
0.0150019871640586
0.0150056041018082
0.01500553632123
0.0150060286214372
0.0150054278698131
0.0150050086977029
0.0150109813960666
0.0150117434268
0.0150129758150395
0.0150119014828451
0.0150120758842123
0.0150118612449427
0.0150117097125078
0.0150126155057746
0.0150117697921993
0.0150108853160785
0.0150218766444984
0.0150233458316021
0.0150247414734709
0.0150230964228185
0.0150234402539075
0.0150224077625998
0.0150220757164849
0.0150236957768057
0.0150226234314553
0.0150212286687025
0.015039840112566
0.0150418504042976
0.0150432634763601
0.0150408058420138
0.0150414487594432
0.0150372967224496
0.0150366476277836
0.0150389662285689
0.015037743663732
0.0150355044051699
0.0150302989287194
0.0150325085888109
0.0150334517965889
0.0150312423667681
0.0150317211516219
0.0150579246702604
0.015057111579767
0.015060118764586
0.0150589223755762
0.0150559090042996
0.0150462556904344
0.0150500217267508
0.0150519020257736
0.0150485406906078
0.015049458778451
0.0150802561269278
0.0150794240242664
0.0150826746743457
0.0150808724365736
0.0150771628667712
0.0151086690571094
0.0151123803757331
0.0151141140051988
0.0151109220847261
0.0151117047334023
0.0151059808395745
0.0151055152191555
0.0151089941424687
0.0151064306411938
0.0151013845961945
0.0151328147972624
0.0151379676432301
0.0151404718818073
0.0151370503493812
0.0151374827704422
0.0151383391967733
0.0151385106933626
0.0151427977520855
0.0151383848521602
0.0151330481002802
0.0152840450766312
0.0257484156958579
0.0259452634031306
0.0272711814654351
0.0286430260537284
0.0289163812049077
0.015226195196921
0.0152413076324622
0.0152500011017309
0.0152481477034938
0.0152823565766587
0.0152838657978405
0.0152755787303818
0.0152613426728022
0.0308497837658698
0.0305458196030446
0.028960593460744
0.0274133007628628
0.0271777829452467
0.0153379793254746
0.0153593391621551
0.0291658617057612
0.0273495679688103
0.0152777881711838
0.0153173956389533
0.0295879623406317
0.0295567601163239
0.0153230988138887
0.0152902807426661
0.0273452375543557
0.0257850751979994
0.0152381671211578
0.0152081393476129
0.024081264233847
0.0241245074911678
0.0153927288035115
0.0153339779430237
0.0225755405000815
0.0234665430444268
0.01574003484766
0.0156537715500378
0.0217737837876992
0.0215297180658182
0.0154972582409488
0.0153086419059646
0.0201013230011522
0.0191355282046352
0.0152555819753526
0.0152117213365141
0.0184253105696213
0.017116569793671
0.0151008000764309
0.0151571112030331
0.017085244347004
0.0161592754091507
0.0153957968023261
0.0150107728780498
0.0150453633782439
0.0150244492335357
0.0150055678881818
0.0150048343298727
0.0150160756568442
0.015008163478825
0.0150013722282615
0.0150006895766479
0.0150070657500818
0.0150006009951077
0.0149992373408331
0.0149993616413169
0.0149987561157584
0.0149989767050548
0.0149996390472278
0.0149994487669438
0.0149987622745211
0.0150001374452048
0.0149998017603848
0.0149997745151809
0.0149998961605534
0.0150003729335403
0.015000113175726
0.0150002275936512
0.0150006200674402
0.0150028124086761
0.0150010902707707
0.0150001872366518
0.0150015713305645
0.0150009089445232
0.0150009142868681
0.0150006661470073
0.0150006627937453
0.0150006367900668
0.0149996805491048
0.0149996942377676
0.0149997096133535
0.0149998140856817
0.0149996251047605
0.0150016794481993
0.0150008725218517
0.0150017769266156
0.0150011890988595
0.0150012902219743
0.015002375615775
0.0150025951429583
0.0150041278811639
0.0150055573021166
0.015007086809422
0.0156782601879645
0.0155122126199116
0.0155555902114985
0.0155968422782589
0.0156038673355532
0.0153091169686019
0.0153186687347741
0.0153100728503371
0.0152997509086114
0.0152958832231869
0.0153026056975325
0.0150028526144166
0.0150140869559397
0.0157148905609956
0.0163163934053755
0.0150255700969662
0.0150224070479006
0.0150134271822034
0.0150119840583358
0.015010086197954
0.0150079433893255
0.0163544852017448
0.0163351697957623
0.0162364876963978
0.0161453574042637
0.0162990842558457
0.016954620362362
0.0168028317872573
0.0169536017896292
0.0171149314323038
0.0171459305944757
0.0150130972636576
0.0150167290288715
0.0150178397866571
0.0150189608490124
0.0150602654539045
0.0150039975554514
0.0150038388690696
0.0150038729643624
0.0150034604024532
0.0150032309228347
0.0150055647956335
0.0150058275724614
0.0150069882514511
0.0150063830272529
0.0150060644200691
0.015004793072967
0.0150052582944712
0.0150063931847326
0.0150058855299446
0.0150059123671477
0.0150118962248194
0.0150117275071802
0.0150128875418824
0.0150105816715244
0.0150098798424983
0.0150184564108979
0.015019617375806
0.0150234892302078
0.015021335169482
0.0150217548145374
0.0150229101294355
0.0150225319917045
0.0150244695729008
0.0150224187868392
0.0150211165168014
0.015037453679229
0.0150396151872907
0.0150426325629875
0.0150395000844149
0.0150402119253037
0.0150420391414426
0.0150413684582791
0.0150440531697503
0.0150421243910739
0.0150397853025698
0.015068158315585
0.0150715082206187
0.0150738581017585
0.0150700525327662
0.0150711965395544
0.0150714501635282
0.0150703989419929
0.0150734764227828
0.0150719572002284
0.0150694182660506
0.0150637229763742
0.0150665349145604
0.0150679034552091
0.01506496856212
0.015065993950973
0.0150971971471456
0.0150962387215698
0.0150990838649183
0.0150977766651349
0.0150950089143499
0.0150870226085892
0.0150899782742942
0.0150911141219005
0.015088195865204
0.0150889412006812
0.0151208435360344
0.0151201355827354
0.0151229973870572
0.0151219223162734
0.0151189547035405
0.0151518705697492
0.0151550166098446
0.0151559888336124
0.0151531896720988
0.0151538775525589
0.0151439149381557
0.0151431586992003
0.0151463055513711
0.0151446713132622
0.015140819810947
0.0151744995994315
0.0151767557145293
0.0151778154114654
0.0151750670056827
0.01517576437326
0.0151682427871412
0.0151678651993237
0.0151708725969129
0.0151690637356431
0.0151658738990303
0.0151679184164872
0.0151707022873478
0.0151743122243931
0.0151702639681222
0.0151698521821225
0.0152023535634315
0.0152031152764877
0.0152065648761799
0.0152046597426384
0.0152142608400194
0.0154297231493851
0.0287882917306844
0.0292700620871985
0.031082430703062
0.0328725118339724
0.0332033891494966
0.0152972844644606
0.0153099524816891
0.0153176260009498
0.0153229029252429
0.0162553553529336
0.0163546015679638
0.0164381745145732
0.0164462530583959
0.0351184361184641
0.0347850981117692
0.0330934801977924
0.0312321867869862
0.0304128180113284
0.0163731176300082
0.0158972443366146
0.0328510976695343
0.0310629872685915
0.0154587813556866
0.0156011453516133
0.0344829293315426
0.0346197034720027
0.0154411651556958
0.0153695808196925
0.0319987111974879
0.029826016115786
0.0153222554245161
0.0152754119697458
0.0276909085355812
0.0277613980521553
0.0155548890189076
0.0154675422607727
0.0258451720169788
0.027524474913545
0.0159551130381323
0.0158336794854643
0.0253762043252373
0.0249838230491393
0.0155757351007378
0.0155338147683515
0.0231567366057339
0.0210868651799332
0.0153300684371704
0.0152827598713018
0.0200759559659064
0.0196356278894626
0.0155200634884101
0.0154004125754888
0.0182028635316484
0.0180794888524462
0.0153618236339922
0.015072867483999
0.0170524613602936
0.0162020273082302
0.0154565653881654
0.0150078704012112
0.0150429050137703
0.0150296353313639
0.0150050945245775
0.0154332768470565
0.0161407356305221
0.0168319786619102
0.0150440695889712
0.0150371381663766
0.0168233866622709
0.0161318980208827
0.0154329205209769
0.0150034248762594
0.0150260852456951
0.0150315645007246
0.0150042009595258
0.0154561344918385
0.0161910460601645
0.0170391048040563
0.0150590801123054
0.0151439620745313
0.0170559658434964
0.0170956590642177
0.0150891663224451
0.0150724828723457
0.0166431117771613
0.0160629820634573
0.0153675807918677
0.0150131316108072
0.0150364865562255
0.0150112953706109
0.0150021927187487
0.0150002356561129
0.0150030653081639
0.0150018062540925
0.0150001366391179
0.0150004602011483
0.0150017620285411
0.0150037487580415
0.0150010418000461
0.0150016226298732
0.0150051196762815
0.0150095128817812
0.0158965559837149
0.0153629236946537
0.015003458919133
0.0150043039656554
0.0153281419117832
0.0158507011805036
0.0150160892781368
0.0150289699710154
0.016512488113256
0.0173093357067029
0.0151298380461849
0.0150765906454784
0.0170593835081008
0.017909132541087
0.0150801753896734
0.0150651978469226
0.0150301665471837
0.0150293399196919
0.0150273175512365
0.0150231257331966
0.0181599572133893
0.0181120351811105
0.0178654663165442
0.0176345005255793
0.0177413886442843
0.018587737965642
0.0185162207830102
0.018841257098102
0.0191848721312279
0.019252611507048
0.0150300125617452
0.0150346250432802
0.0150384305789542
0.0150396712675743
0.0150718828408436
0.0150096759151459
0.0150111584657035
0.0150126342357042
0.0150104985702829
0.0150102508060944
0.015018284533899
0.0150185204904292
0.0150219361664131
0.0150192235595217
0.0150158041122759
0.0150255667754932
0.0150319537185755
0.0150363226964031
0.0150311613541216
0.015030959058249
0.0150372845713263
0.0150364739129329
0.0150399808376794
0.0150340809044732
0.0150321073921161
0.0150529110279604
0.0150564954586521
0.0150649596359253
0.0150597882751669
0.0150611183694326
0.01506708004228
0.0150658861473543
0.0150705243463815
0.0150664255452752
0.0150628016801726
0.015093865095618
0.0150974758783467
0.0151014502533059
0.015096952096244
0.0150980511787858
0.0151023856258187
0.0151013192770199
0.0151050196519533
0.0151027563000766
0.0150994356013013
0.0151007819335702
0.015103284540053
0.0151047398983583
0.0151017488887255
0.0151027352596479
0.0151351744327692
0.0151342237575281
0.0151371501184124
0.0151357649682261
0.0151332046089116
0.0151272809140046
0.0151300927377026
0.0151313326549356
0.0151285556432055
0.0151294760200463
0.015163188174259
0.0151622950985689
0.0151649854656692
0.0151638682843379
0.0151608193956033
0.0151967570283446
0.0151980117551353
0.0151986007905501
0.0151963291146439
0.0151971427912401
0.0151867480467223
0.0151861142162221
0.0151885191302682
0.0151880386469109
0.0151866943484751
0.0152217309233955
0.0152228794395445
0.0152227829679734
0.0152210485512545
0.0152215834252316
0.0152092620015431
0.0152086869519513
0.0152107200222478
0.0152104242359012
0.015209085953801
0.0151992000093696
0.0151984397180045
0.0151993230393343
0.015196944763134
0.0151972204754479
0.0152473940951549
0.0152471513071158
0.015248406582067
0.0152476681120712
0.0152614417344325
0.0153706877066295
0.0153139431516842
0.0153216405257304
0.0153245166934691
0.0153247949223865
0.0159772440604346
0.0159724733143311
0.0159360291533761
0.015885520645351
0.0158184214218716
0.017817783594843
0.0322063620045307
0.0340339356551052
0.0359172164657122
0.037493691512625
0.0378201201214741
0.0181996654077355
0.0181934069861973
0.0180066740655734
0.0177747027908519
0.0192171843265708
0.0196201887826895
0.020000942647232
0.0200986633706709
0.0410749876299156
0.0400294753209597
0.0377413792307327
0.0355527639178317
0.0340238941010114
0.0188590253819318
0.0182761878438694
0.034430442954342
0.0336816004755918
0.0178059495796132
0.0162609991468531
0.0335663433639607
0.0347785359589831
0.0166793792554076
0.0176048342781415
0.0354158897044331
0.0372778289431012
0.0186626252463008
0.0181638468882811
0.0438098968890086
0.0455393757672548
0.0161933323597344
0.015824673991139
0.0412262439620725
0.0377396250498765
0.0155681746329556
0.0154608201786514
0.0350666050584464
0.0322066127543576
0.0153842642572652
0.0157201541335311
0.0323427848190645
0.0299102483033662
0.0156383848412541
0.0162448346781223
0.0327018905823425
0.029942376421918
0.016103411304736
0.0156950975350711
0.0293155414579663
0.0270121442663609
0.0156279558260989
0.0154311113043143
0.0234142835547577
0.0223115102363359
0.0153882737965317
0.0153796240948384
0.0220471889454475
0.0213280184711572
0.0156686944035948
0.0155099066932272
0.0210183016892132
0.0194215591670634
0.0154183864841717
0.015175629013854
0.0187662515438254
0.0177141753297258
0.0151253469600087
0.0151135307514817
0.0177074962361998
0.0180624647761512
0.0153378407809153
0.0153742262611427
0.0181586183485055
0.0183624951154407
0.0151761370231036
0.0152132019254341
0.0181825295822066
0.0174358288109124
0.0151516348245577
0.0152884801660653
0.0177894378750738
0.0168789347234133
0.0151790456561421
0.0150371171236887
0.0150131249712878
0.0153836773355182
0.016074360183685
0.0159800781035871
0.0150314949996647
0.0150125515441531
0.0153762206003941
0.0152921116141925
0.015006998663035
0.0150214124732316
0.0157343252061394
0.0159715629709646
0.015030135975107
0.0150225728762797
0.0162510889742815
0.0164117868265832
0.0150184792561714
0.0150221082746997
0.0165402426503126
0.017297280123164
0.0151671653236944
0.0151687209429548
0.018245033580972
0.0182326684803145
0.0151355676086263
0.0151413222759932
0.0193094342422137
0.0188681526625443
0.0150842331414342
0.0150900415070684
0.0199607284000129
0.019561295407567
0.0195478133924887
0.0199921705534342
0.0204566539104202
0.0205464481252754
0.0150382495966634
0.0150455996523753
0.0150513789318155
0.015052252580801
0.015080587796914
0.0150917714233368
0.0150685963531466
0.0150683468837836
0.0150602545835782
0.0150470724506572
0.021931112816913
0.0218180081796219
0.0212174025241253
0.020639228758562
0.0206012229123338
0.0211684454452149
0.0150983772433394
0.0151108665031075
0.0224940075846769
0.0217305579763989
0.0218367966673599
0.0225707009906115
0.0233302167684561
0.0234693895739889
0.0150600898850352
0.0150815874895798
0.0150922929543062
0.0150914703181865
0.0151076593686542
0.0150410601683945
0.0150516962392853
0.0150582558907335
0.0150508009009659
0.0150503290240156
0.0150799771486833
0.0150807791359874
0.0150886643786565
0.0150816431473757
0.0150654073179447
0.0150836881576473
0.0150873271993223
0.0150955883372479
0.0150906255923992
0.0150918435760131
0.0151230187430171
0.0151218698720073
0.0151267035415844
0.0151186482894332
0.0151148296238956
0.0151256920409046
0.0151293546524138
0.0151332137578993
0.0151287975290779
0.0151298471663914
0.0151346403750151
0.0151336147756999
0.0151372476372413
0.0151350757566168
0.0151317070316439
0.0151653025535479
0.0151689056294558
0.0151709161299446
0.0151673657632645
0.0151683685646044
0.0151691787143015
0.0151682519591869
0.0151710989237857
0.0151698461791171
0.0151670220127571
0.0152034291468289
0.015204512845337
0.0152051975581878
0.0152027787617077
0.0152036262766737
0.0152410291037344
0.0152403268015978
0.015242053760005
0.0152420348919053
0.0152412090776754
0.0152336859315406
0.0152347187637367
0.0152347077954251
0.0152331039051527
0.0152337778852994
0.0152538949105591
0.0152532972899048
0.0152545722448147
0.0152548156193004
0.0152549360431601
0.0152424382617006
0.0152423977993615
0.0152420778920469
0.0152406817456821
0.015241162467675
0.0152402596418274
0.0152397804925871
0.0152411761484285
0.0152414908656032
0.0152413868200216
0.0152279148156579
0.0152282298841016
0.0152281939957493
0.0152265285976042
0.0152270513260148
0.0152236415971806
0.0152231072316551
0.0152248368816493
0.0152248168878122
0.0152252545439419
0.0152497105904496
0.0152468607898871
0.0152467833532119
0.0152454689021162
0.0152458927015325
0.0152657795393178
0.0152654158962567
0.015266414812929
0.0152666748606736
0.0152705404253692
0.0152791132643958
0.0152652984535623
0.0152656484215009
0.0152646567956101
0.0152648551518647
0.0152624193372369
0.0152622091528454
0.0152632301369191
0.0152627943220772
0.0152775374086229
0.0154150103857396
0.0154490252012588
0.0154608947488373
0.0154681224237429
0.0154694641293106
0.0154948971226315
0.0154936659560283
0.0154874378899542
0.015476856031999
0.0154400901193188
0.0158214230854747
0.015924711616982
0.0159715084619533
0.0160039070629
0.0160084479466729
0.0160312239946657
0.0160266824118755
0.0159953626937857
0.0159498425309217
0.0158731467929966
0.0184806869162909
0.0189179018765058
0.019253805665386
0.0195651001100427
0.0196397861845998
0.0203852093121669
0.0202849163091706
0.0199295155830434
0.0195436940638118
0.0188005794561106
0.0207351461577575
0.0366192227856602
0.0393002490214688
0.042203549111312
0.0452158448850248
0.0468018123678296
0.0234724944032227
0.0231924941733222
0.0225036395618845
0.0217861657570833
0.0218115104472953
0.0224608299477099
0.0230661269203867
0.0232809174785859
0.0498519517755062
0.0480385754715299
0.0447126345446016
0.0414481115002474
0.0384595831277971
0.0207820562873213
0.0186157231756986
0.0406325660589505
0.0417729864530454
0.0186854144193538
0.0183994765964329
0.0483698197847296
0.0509835021541912
0.0165605527568565
0.0169464623004349
0.0469381325294553