/*--------------------------------*- C++ -*----------------------------------*\
| =========                 |                                                 |
| \\      /  F ield         | OpenFOAM: The Open Source CFD Toolbox           |
|  \\    /   O peration     | Version:  2312                                  |
|   \\  /    A nd           | Website:  www.openfoam.com                      |
|    \\/     M anipulation  |                                                 |
\*---------------------------------------------------------------------------*/
FoamFile
{
    version     2.0;
    format      ascii;
    arch        "LSB;label=32;scalar=64";
    class       volScalarField;
    location    "300";
    object      omega;
}
// * * * * * * * * * * * * * * * * * * * * * * * * * * * * * * * * * * * * * //

dimensions      [0 0 -1 0 0 0 0];

internalField   nonuniform List<scalar> 
208838
(
1.00074072153412
1.00059323651238
1.00016688080735
1.00013841026791
1.00031415923486
1.00027773227535
1.00023503150848
1.0002081476637
1.00025092320202
1.0002949065868
1.00036090911028
1.00043226139385
1.00036810648399
1.00042306159245
1.00043557164676
1.00038793357459
1.00034362640614
1.00030960950529
1.01993919255828
1.01899243916215
1.01769849262856
1.01614752220783
23.5019130888108
25.3800113283916
27.2002445399994
27.4277215586267
27.1439922418356
27.4411293933671
26.1537028388377
24.7520145841291
23.0884361817433
1.01343504921422
1.00936806758864
1.01009662448472
1.01163550573832
1.0114697812479
1.00981094441138
1.00888522976562
1.00737173101317
1.00654566923583
1.00352364108389
25.2906169170584
26.4259605312534
27.2553281542739
27.9874947837482
27.17928155021
26.0385829204207
25.4420552256003
1.0347945652435
1.03282214563706
1.03006160019675
28.5616081926476
27.7018243731383
1.03296812499866
1.09643286836133
27.2364274364789
27.7010229304938
1.03135799920704
1.01760386782827
1.00724221553837
32.3311250424436
29.9000420491464
28.582665598056
30.3979561581101
1.00839311524426
1.01703949829569
1.00047954626008
1.00018555613654
1.00031439586601
1.00052487349203
1.00049375513667
1.00033315954246
0.999992875447319
1.00001749182775
0.999921168488007
0.99996914087997
0.999980028209522
0.999956715725135
0.999935639677219
0.999921350661254
0.999915165328701
0.999910669457177
0.999908109360493
0.999989794644169
0.999989715462777
0.999990041538023
0.999990165541876
0.999980886209208
0.999948806718096
0.999952820706856
0.999952593512801
0.999952391088862
0.999952390596201
0.999850952980057
0.99985066903428
0.999852714808793
0.999855781023598
0.999868296846415
0.999769353449732
0.999756463355546
0.999753568118966
0.999751384384122
0.999753071189971
0.999779116406377
0.99978423301874
0.999792035820747
0.999806003684984
0.999835086241553
0.999766416946226
0.9997290656707
0.999704919933051
0.999696472626502
0.999686644574399
1.00031309422387
1.00033409286121
1.00035455427243
1.00039804509739
1.00083174447301
1.39037830931824
22.8583719920019
23.7540064767536
25.7559974655715
27.7158354443587
28.0630562667882
1.04558472457219
1.02629650289759
1.02433445448521
1.02821593062927
1.06532875373741
1.06299419980741
1.06915000344818
1.09087931134919
28.9329609092797
28.507717769947
26.4153802849471
24.2927803313209
23.730158060454
1.39724303186894
1.65562445404259
27.1764758767646
25.7971633659999
1.63572313386806
1.04815284274408
24.6007722122306
22.0993276060165
1.02437557738441
2.18294195916764
29.2400844478489
28.8801696243765
2.71596121691666
1.48711597860898
26.1211785354551
26.1548397889772
1.02571037256295
1.02078603805424
25.1876350548005
26.5890940080892
27.679282661741
1.00411401688568
1.0115818835069
1.0014071097393
1.00021791718535
1.00003160432375
1.00038663290496
1.0000803784836
1.00000435412741
0.999971043203082
0.999929284839103
0.999898103315712
0.999961163800033
0.999953202829184
0.999882062227744
0.999876860361156
0.999948237832487
0.999943718316687
0.999869750802775
0.999861121779313
0.999848841335211
0.999845867500117
0.999844033052298
0.999843891135594
0.999946318450368
0.999946376606801
0.999946633000014
0.999947062339036
0.999943615647895
0.999945199174362
0.999948303344957
0.999947910478648
0.999947706343646
0.999947649648526
0.999852201793896
0.999852392308488
0.999853890707962
0.999856867052667
0.999868137633292
0.999805851785608
0.999798712928578
0.999797585570143
0.999793074411958
0.999793543840954
0.999760957979878
0.999760683475617
0.999764598723215
0.999766344600805
0.999776483869598
0.999744551216418
0.999751259843008
0.999755919986033
0.999741343981665
0.999741815937442
0.999701472909409
0.999697339063825
0.999700837270175
0.999698490034757
0.999702428492009
0.999770009960107
0.99980242357315
0.999829213338649
0.999805703436386
0.999816371216403
0.999756622546875
0.999773835707252
0.999786132615571
0.999815485006273
0.99984094867526
1.00134899782642
1.00052162689124
1.00049356330727
1.00051421540201
1.0005135980331
1.00108495320498
1.00108350598032
1.00105103358314
1.00100881739496
1.00212268140498
1.4048312381351
24.2160979777949
24.8929229105572
27.1265295082147
29.3383973376868
29.8110052811268
1.09806589778493
1.07766262257078
1.07116215952203
1.07397504996375
1.08422946663779
1.08080880065922
1.08754356090323
1.10661289051387
30.7666507577642
30.2598529740885
27.9152339523831
25.5573324562716
24.7992862559283
1.41230366952675
1.67555186401733
28.2356750749666
27.5873920778958
1.66749688118201
2.18469913992086
31.5413201083058
31.119534282169
2.66430504400664
2.66021020261956
30.5222831151477
26.9081455895221
1.52311949056204
1.8833570197328
27.0294735479873
25.8148537537347
1.74753909614024
3.55081844247477
27.217125081015
26.1631080856656
1.03346027866709
1.0240897581438
1.01022553467529
33.0133163222432
29.829960422081
28.2809866875358
29.843685285406
1.00447847601416
1.01533063354782
1.00332829554185
1.000777230742
1.00021898952984
1.00122664106432
1.00027205138542
1.00001340803588
0.999975881923378
1.00002098108842
0.999920017546923
0.999966171312934
0.999967222240173
0.999913380392908
0.999895902796071
0.999961472533548
0.999952133379518
0.999880550508947
0.999887775080154
0.999954185593107
0.999945475433521
0.99987642028941
0.999891700788959
0.999951024503764
0.999950490713911
0.999952872183256
0.999952495132449
0.999952343816678
0.999952293479315
0.99986951368098
0.999869716745175
0.999870733387224
0.999874025692613
0.999884152369188
0.999847143356534
0.999842280759633
0.999840410937349
0.999836292644969
0.999836456435688
0.999920748965618
0.999918296288931
0.999938344430636
0.999926341221201
0.999907567974845
0.999820029141327
0.999835166784656
0.999845824390227
0.999826536632131
0.999829472236432
1.00010592800614
1.00009364339735
1.00015728572965
1.00011001749494
1.0000426780856
0.999886742906707
0.999939988476555
0.999966470949504
0.999914242722982
0.999918903960438
1.0005770173644
1.00055381445875
1.00070485463106
1.00062526620052
1.00047393845393
1.00019841308824
1.00031300373214
1.00039411680914
1.00029440828891
1.00032180116964
1.00020984079084
1.00023755799752
1.00030156390017
1.00030696198741
1.00025892205304
1.0013703031711
1.00160666987224
1.00169933316632
1.00148188069869
1.0014616237691
1.00233091978446
1.00233827130853
1.00241823730538
1.00221028775215
1.00338522878693
1.00557255365341
1.0046855516267
1.00521653582748
1.00479377027875
1.00480664550012
1.11573727289588
1.09810182328426
1.0912838996559
1.09524087734624
26.2568799331624
28.7466295358121
31.2319982038766
31.7647482820727
32.8297942156863
32.2740761490998
29.6352076458036
27.0017487163263
1.10819734248991
1.10383652022362
1.1104217623419
1.12587662786307
1.00958962204727
1.00950726391309
1.01064182935577
1.00950782946056
1.00945197715219
1.43279385475375
26.1720732261537
29.9638785931265
1.69928818802756
1.68184862434197
29.0498542715424
33.3985276310943
2.21746900310929
2.70231945850355
33.0300534508722
31.9929113887948
2.68856162405078
1.60947439756443
28.3172480427595
27.5118841171481
1.56539987373381
2.06187749060173
27.9656723432516
32.0781143797817
4.74720768551103
4.10804890682949
30.2290572383241
28.4430924054444
2.81350242583967
2.07859954307569
26.2748247656403
26.3388977886097
27.137720857338
1.02746820914578
1.04044436091746
1.01215845628066
1.00277533613309
1.00393340200019
1.0115841132021
1.01107457770136
1.01520236272792
1.0141024519394
1.01257693665886
1.01155413802294
1.00910445710743
1.0044184184975
1.00901102036613
1.02231452501619
25.7095759293279
1.00454436899096
1.00148637074328
1.00479294525031
1.00617539173847
1.00133446228338
1.00027621380891
1.00048606530063
1.00003593227982
1.00002474467572
0.999979207846725
0.999994870138724
0.999974586289258
0.999973730742661
0.99997313662139
0.999932248706538
0.999914856370959
0.999969963182714
0.999963837206826
0.999905896353746
0.999918859081845
0.999968746004779
0.999959621035021
0.999903529905332
0.999919412067039
0.999965739346971
0.999958238562351
0.999908704212011
0.999901811629365
0.999893015683061
0.999889818923508
0.999889284735637
0.999889087067636
0.999958546221488
0.999958590712785
0.999958689296894
0.999959032234136
0.999957380461983
0.999963975053055
0.999964305449659
0.999964193351907
0.999964038221238
0.999964059937532
0.99991013467327
0.999910159113833
0.999910266758259
0.999912887112399
0.999919901020721
0.999916651682022
0.999915758648286
0.999915085425095
0.999912391975712
0.999912639112096
0.999873452027379
0.999873493827306
0.999877241706077
0.999879239195156
0.999882025646759
0.999964945991729
0.999984834473288
0.99999883263495
0.999979197383391
0.999981250835988
1.00036056001368
1.00034947497239
1.0004190503797
1.00035176760515
1.00028290629481
1.00020639226355
1.00027660885541
1.00033269908688
1.00026371911761
1.00027529911181
1.00123152386667
1.00119236422765
1.001385056277
1.00123438683525
1.00106749106147
1.00077608342731
1.00094518636306
1.00107082827094
1.0008959898677
1.00093579687897
1.00299348573348
1.00288142649385
1.00329810271701
1.00304601140453
1.00267167652083
1.00207514067925
1.00241728166535
1.00259434602889
1.00223402591592
1.00231255438713
1.00171485294405
1.001641032111
1.00193337965172
1.00174319034467
1.00143840433626
1.00441570611505
1.00510370731072
1.00549736384742
1.00480300281773
1.00499127850884
1.00428646773385
1.00424884994742
1.00478539070077
1.00443476176871
1.0038219295205
1.00884414403442
1.01013385643486
1.0110908545216
1.00994697328821
1.01013010289895
1.02178373960782
1.02130520725123
1.02325457027082
1.02129246612635
1.01851789587529
1.01640066791897
1.01867108835315
1.02098342397555
1.01847966629908
1.0186587673218
1.13785230248768
1.12674444268694
1.1207701776024
1.12514020776366
27.7850475593597
30.5755090472775
33.3822712434292
33.9606739915277
35.1073882200194
34.5089688554761
31.5297505450431
28.5767572094883
1.14567200251106
1.14147586446042
1.14746924085933
1.15300435020659
1.0327198193676
1.03268579779724
1.03623317105946
1.03300975520929
1.02972867595961
1.4649899247866
27.7004769153186
32.0481786542634
1.77148897099657
1.73055760272836
30.9654622122857
35.8929476709834
2.3101147671933
2.71490124483185
35.4786917737243
34.1835060172477
2.71044673441598
1.66408993918233
30.1808744576445
29.2194141351261
1.63244453942176
2.40735131018591
30.1146398791683
29.0261596010397
2.26077958571783
5.25874162010159
33.9213194772642
32.6339832878095
3.52892023281212
3.26564627368393
30.6068625436269
24.456654888818
1.73555390116982
1.47562721367633
23.0271094072398
21.8707858058883
1.11496459359729
1.03049991225946
1.02258135199521
21.1950646339112
21.3769232371775
17.4954114634261
18.2459083318168
1.00762029141915
1.02079795668112
1.00138947770009
1.00017445143971
0.999992616470069
1.00014491721791
0.999914804195997
1.00003064290722
0.999972952594246
0.999925023395638
0.999863663150739
0.999992697486758
0.999970417905451
0.999940262841091
0.99993181797477
0.999972768813911
0.999971814180396
0.999927750142954
0.999929920591806
0.99997184791772
0.999977382129207
0.999946552665103
0.999943796314117
0.999975360870821
0.999966578637261
0.999928194698885
0.999941476411079
0.999973135458316
0.999964947162392
0.999966171646995
0.999965066987886
0.999965092537884
0.999964872377641
0.999920228776982
0.999921118886727
0.999921563299678
0.999922949620679
0.999924404194452
0.999943085126306
0.999946066882293
0.999948517286775
0.999943881861514
0.999941553354991
1.00006370486041
1.00006629694458
1.00008827735898
1.00004688672109
1.00002485180733
1.00000638390436
1.00002370480889
1.00004612039384
1.00002554601903
1.00002845281162
1.00038148378135
1.00036841594126
1.00044986145399
1.00035345046081
1.00029654110226
1.00105240358587
1.00118829534229
1.00144406957709
1.00121031541808
1.00125378158473
1.00132851199125
1.0012885169313
1.00148558163585
1.00130030481625
1.00113216172774
1.00315207082753
1.00352624275433
1.00392141601226
1.00344593151776
1.00356205345978
1.00350493752924
1.00339101249265
1.00385636654223
1.00354853479944
1.00318361578119
1.00809186649408
1.00879171619443
1.00930429380242
1.00837968934618
1.00866939104766
1.00774763447209
1.00747147709106
1.0082805190281
1.00786750992271
1.00715671185935
1.00589171522219
1.00657043059078
1.00689726675905
1.00616675560205
1.00637422467311
1.01533914890933
1.0148855799069
1.01618270318538
1.01565812995714
1.01443847412755
1.01092934035554
1.01234958495015
1.01311201513605
1.01165439522356
1.01208252945247
1.02538521655776
1.02475501764943
1.02684496355655
1.02579015348436
1.02379575093945
1.04259441129234
1.04525897755918
1.04666963322689
1.04383036756494
1.04472161991201
1.03839507675169
1.03773148084934
1.04037643934598
1.03745522829349
1.03339243736269
1.05400370727407
1.060016162376
1.06429816620916
1.06079774623965
1.06170164425343
1.05235138834012
1.05279237576504
1.0576214385648
1.05318450639053
1.04972089410939
1.49113779568278
28.5281545184692
29.4572142251564
32.5912806675463
35.7596205390752
36.3740218567582
1.17550777918773
1.17432669376676
1.1679369663593
1.17145395922575
1.20192526159368
1.19967485200012
1.20840897368721
1.2059814674219
37.6773094494322
37.0534580659694
33.7007498103866
30.3841601967553
29.4003710272106
1.54417442841342
1.91868592078224
34.428245962894
33.2079941949845
1.82929112657946
2.53683044326021
38.9700359943966
38.55036563983
2.72059474837838
2.71760681385393
36.9348545447808
32.4002837357779
1.74550593535403
1.70167818482899
31.2308143476999
32.3261256492312
2.63243641072952
2.51970346957344
31.199717027295
37.39282399505
5.79724818150892
5.59001087216497
35.7062860318616
34.5440038724123
3.73491019884336
1.914459811801
26.9704939222548
25.7663059831506
1.72371228982031
1.35217873811031
19.4173776870401
17.981409776341
1.0659978143024
1.49775001259146
16.3245620252107
16.8732705202396
18.4564628443054
1.00439569766756
1.01786015939029
1.00545336086487
1.00097613781721
1.00076396370392
1.00282275864935
1.00087280339493
1.00011523258109
1.00003517712753
1.00069931129161
0.999987206100364
0.999943596455475
0.999954798045218
0.999884120083613
0.999910904956256
0.999967008820994
0.999959201780892
0.999903999050473
0.999957046620244
0.999970633145133
0.999969093406377
0.999953441485491
0.99996091155936
0.999981106493589
0.999987850142245
0.999979257979847
1.00024283160665
1.00007476170012
1.00001042010889
1.00011828300646
1.00009341262132
1.00022483684443
1.00016790983032
1.00022545574598
1.00029900759905
1.00023301931528
1.00018216417618
1.00013759713117
1.00019811237808
1.00000146788603
1.00468943489306
1.01686568367497
1.01744781229825
1.03458712659566
1.0810034386867
1.06710563101505
1.03731121460321
1.02021494035664
1.01668235664473
1.0116005125669
22.9936873333511
24.7519351597981
26.1539405516067
27.4413587575685
27.1438205117466
27.1787361026021
27.987673241931
27.2557231550044
26.4262346456419
25.1255886181501
25.9996468906417
1.0204515835931
1.02316034735843
25.3958409317311
24.5971710328449
1.04125801875732
1.02134646390185
1.02158863020571
1.02588517823284
1.04165083963876
1.07103063264686
27.4309301402199
27.2041396799868
25.3835283847965
23.5050381490863
22.0944680598076
22.8686742121372
23.7606898114908
25.7636183063813
27.7222645141109
28.0678928318348
1.11538677883931
1.06721303425559
1.03448066836129
1.03628579841033
1.4006513622747
1.00069237432504
1.00039579576325
1.00038944016151
1.00043193973959
1.000538510241
1.00090533754612
1.00073708105739
1.00076353470746
1.00067451117439
1.00130399686264
1.00024925468195
1.00029999240631
1.0004616767777
1.00037941238053
1.00038749753733
1.00114956209647
1.00110713894301
1.0013478451852
1.00093224987814
1.00083403721798
1.00216484775166
1.00238256767064
1.00328218258437
1.00270516878923
1.00283232495898
1.00324107764823
1.00311882384597
1.00366978719298
1.00311765908067
1.00280854685527
1.00670663835937
1.0073984369637
1.00845085917212
1.0072863589219
1.00758584093609
1.00851179195781
1.00821697867319
1.00924289459704
1.00854688719638
1.00774220449696
1.01805272266686
1.01957372178449
1.02062256133214
1.01874698301215
1.0194068767713
1.02014550102961
1.01952797994506
1.02099122094912
1.02032383924872
1.01920331832165
1.01735473877154
1.0184960777123
1.01904860533254
1.01775925362732
1.01832939650372
1.03516588159746
1.034447172315
1.0358611743223
1.03533810226449
1.03409572309846
1.02948010124247
1.03099199098425
1.03158965586713
1.02998207717713
1.03059059115171
1.05330213590328
1.05254456593698
1.05441184439779
1.05384185627274
1.05205281837255
1.08595141381136
1.08805156201464
1.08849926089322
1.08634409665284
1.08723737060773
1.07286856212358
1.07161612182902
1.07537478881167
1.07345816484355
1.06995457324919
1.10994981732294
1.11166553623387
1.11318559310918
1.10957645760082
1.11107949476972
1.09258018090775
1.09147534406452
1.09527860622897
1.09075819035452
1.08408558047028
1.08156057294193
1.08098078119664
1.08592657747631
1.08055763203115
1.07948988254631
1.11588926110171
1.11857528674133
1.12303793240912
1.11914472787625
1.14450231380131
1.66880703986969
30.4360160994043
31.7715753333275
35.3166181253131
38.8676815148837
39.4678002707291
1.24723029572221
1.25384896562403
1.24210584769084
1.25320710389021
3.1964485162768
3.40889623059029
3.61537475824303
3.62951184900129
43.6166758947308
43.0931160228645
39.3164846069844
35.4471257771769
33.171895373896
3.55654969999001
2.8147793435924
37.4314041779042
35.6380983343251
2.0292875844139
2.91285219805368
42.4913278467541
42.0825016880961
2.76095404874389
2.73019470280381
40.3066506371123
35.0830033462702
1.86319568583346
1.79788199036464
33.6902748599105
34.8847681695651
2.90264672194809
2.76573733069811
33.5489400028379
40.8638463896817
6.17248539550762
5.9713870084149
39.0726946898499
38.0591883450395
3.8305143811054
3.77931092013842
36.3315251456917
27.996371878424
1.8424491541578
1.48849781119814
20.8972199748788
19.7942697984398
2.82059619626056
2.54442640617252
17.9452012181259
17.1855938950049
2.49497041104411
1.05843841644398
16.0187037079261
17.4087476551233
19.3239746980089
1.00456536390054
1.01858379303434
1.01191702323256
1.0037312181268
17.5778052951093
16.0167791430421
14.4603633101557
1.01820025818032
1.01897297056822
14.459037435936
15.9960839904276
17.5523627689538
1.00424942426249
1.01207297749423
1.02004274291812
1.00951574881549
19.2711848626371
17.3707881545125
16.0292811571853
1.06907385600635
1.56684098937981
16.3570480279609
18.0495250379403
1.06310450632948
1.12673594320605
21.9609697291366
21.3116043676261
21.2766921608571
1.02073880124903
1.0301661235766
1.00251343879057
1.00027817272407
0.999993063558999
1.00046275864842
1.00020556436133
0.999983796786755
1.00001033857481
1.00012147799621
1.00056435647741
1.0000998316916
1.00020697788782
1.00102100791506
1.03031137368916
29.9096916296879
32.3189740210892
1.01832033346254
1.01148443924071
28.5468227618644
27.7058892531281
1.01966049952974
1.12385385533646
27.2513238361592
29.2789731419079
2.21829220357038
1.63935273637361
25.8172118085339
27.184165442824
1.66591567130257
1.41073662170712
1.09096314722859
1.09105236250197
1.12923813594891
1.17645544573481
28.9379573361727
28.515386504981
26.424300900956
24.3008165420454
23.737133278578
24.210002999316
24.9009042468798
27.1359863129339
29.3468684901535
29.8169139963935
1.18525600019246
1.14066015175926
1.10130961091525
1.10376902526862
1.42080420932856
1.00206445937336
1.00127706559719
1.00155874933084
1.00135249767877
1.00157005507657
1.00288206334458
1.00260806290926
1.00318728324616
1.00253237924734
1.00317582736042
1.00505862155331
1.00509514788086
1.00643627865542
1.00513119402911
1.00547808464271
1.00640941163786
1.00609938839354
1.0073103150554
1.00553276683601
1.00502554330974
1.01095473917911
1.01226428523598
1.01560282306705
1.01329521265373
1.01394837304268
1.0169682544722
1.01631148302212
1.01856583223671
1.01671445609399
1.01511402198296
1.03017578647247
1.03246917482935
1.03478702462273
1.03181436651149
1.03271563020699
1.03655867658075
1.03568989452395
1.03794499352618
1.03680968179594
1.03495970212083
1.03679179593254
1.03798962502236
1.03863133033926
1.03702449164797
1.03780359381693
1.06482656916427
1.06397254271331
1.06545579467061
1.06504681538225
1.06403075086607
1.0597749384141
1.06091578959122
1.06122599230669
1.05993676138574
1.06073221109917
1.09971705781811
1.0989659277932
1.10012906388377
1.10027938226122
1.0993529972705
1.16183106562286
1.15777554096006
1.15618178449501
1.1555362975624
1.15603812031813
1.13494136840509
1.13411172473133
1.13595847503245
1.13657164574437
1.13779993758683
1.21129806614832
1.20768067735499
1.20672832344915
1.20533043581571
1.2059738960139
1.16709241899621
1.16563507552028
1.16893155206439
1.16777870290512
1.16526174477285
1.12780528970006
1.13057609547021
1.13419493096812
1.13052063234207
1.13111279511076
1.22224606080394
1.2229150002851
1.22590025048265
1.22109969913654
1.24020494227028
1.44191964027244
1.32036515626934
1.33884755730629
1.34784891883363
1.34364203711005
2.75843534304758
2.75883813911688
2.66400159164861
2.54296952521987
2.38928103756882
6.76217527823012
39.5480038806158
44.7549169433765
49.5025993945155
54.0327277933428
54.5139869022746
7.71434080140217
7.72175681333701
7.22365954293492
6.66359594916256
10.6209560371308
11.7514708373397
12.862790134269
13.1097509125341
73.9308202317515
71.0140946170004
63.7913636808277
56.8011581370115
47.8517588655243
9.31901914152563
7.78430554725343
44.3347312462438
40.5912400968504
6.74324170330121
3.54629915142647
39.3600383951217
42.0981283938639
4.37856813064169
6.34007413264957
45.1152939723751
51.7336957625597
8.77563754278445
7.39496075136796
54.725184252259
50.6112459137006
3.80624535029754
3.22643440770864
47.1291809112301
44.3528458805498
2.87380307670051
2.07051312752749
38.3036058893367
36.5394769966214
1.95232511035827
3.07642109316106
37.8500517414825
36.3140452804865
3.00271286425959
6.55589965089438
44.9568366833935
42.8231931472831
6.39201182778872
3.99135822980765
41.8664186898605
39.8556452698988
3.89912478921493
1.9611830595573
30.0196488782329
29.0541215240906
1.99935998842711
1.61138887974652
22.2943328285061
21.0651347960741
3.0686997495672
2.71405086998784
20.3378720042785
19.1305093690121
2.59074967371836
1.41263772893656
15.3200933802056
14.5272174611412
1.34220370810706
1.32370660247395
14.5261323665012
17.2213836912289
2.47118808374469
2.59092457152338
18.0428715825868
19.530774160584
1.31071925499698
1.75254687668464
24.6873744243371
23.2240308045484
1.5073117607371
2.9600507894459
28.7374162427625
26.4042759531319
2.22874940350874
1.06297524172515
1.06187850623572
27.1443860900721
26.3493979281586
29.8201314806393
1.04408292347364
1.03588624610954
32.9615685825942
29.8058432425954
1.00444836503878
1.01539265164656
28.2537088218129
25.728161154978
1.02166679426026
1.02422169891866
25.2215630077092
26.1877654680926
1.03402703640958
1.04239665866861
27.7270012424649
28.9363695425423
2.74603583985375
2.69230807920159
30.5755215110775
31.0502153664618
2.21092600275386
2.20870230858148
31.5169204079301
27.5594474406193
1.68318752562095
1.69478683525387
28.1417218766073
24.7637449560604
25.5592883420252
27.9206397891123
30.2655129475379
30.7704189790931
1.1947194417392
1.15125605500645
1.11094717714302
1.11349671753751
1.42998875832791
1.43770007621462
1.12287283304716
1.12047925674119
1.16089598076727
1.20294183944513
31.7467834508867
31.2142627475721
28.7288367566022
26.235234799063
25.372060900589
28.8568866966266
1.70219689116467
1.70715608445045
29.650508740598
26.0066774032103
26.9465762032536
29.5851383722147
32.2249409154354
32.7839297319339
1.2102852122967
1.17155113893266
1.13193301523843
1.13372413783203
1.44503344873145
1.00876080612803
1.01047114538339
1.01308290611849
1.01042636798963
1.01070830027998
1.02190526859544
1.02180313162109
1.02591108463438
1.02186619489032
1.01672487338701
1.02331686694343
1.02547053301108
1.03000803235955
1.02692393191758
1.02781318945242
1.04853351455923
1.04739187418136
1.05134667912033
1.04530047175545
1.04180777530061
1.05338841828762
1.05642620403817
1.05922276150803
1.05548100303956
1.05667618841997
1.0628656111784
1.06181187388556
1.06429390702883
1.06326281377027
1.06122080822044
1.10248683630774
1.10451177575545
1.10521692046217
1.10257777095688
1.10374495951485
1.10648109818531
1.10564956342856
1.10711703094726
1.10735960602192
1.10661387493979
1.17467143821107
1.1695692574243
1.16772376734352
1.16691081519707
1.16746255694098
1.26073919048455
1.26055842217093
1.26144808030678
1.26371891573175
1.27628411583459
1.25333097453009
1.24370548187648
1.24192057654798
1.24134441914159
1.241510966925
1.30192684896456
1.30189036941007
1.30263484697831
1.30470346369133
1.32145281275491
1.27706122964951
1.2664107451655
1.26532402898255
1.26386766828931
1.26437448742342
1.25076757184988
1.25010074018753
1.25138179980249
1.25223789691918
1.25960142763219
1.21066628066512
1.21102080802631
1.21178582403569
1.20863881675408
1.2100085944209
1.19242549130254
1.19075919970345
1.19370972820691
1.19259520414563
1.19299753116524
1.24307586074875
1.23945415166194
1.24122067249543
1.23805974303623
1.23898042637533
1.29228336600697
1.29161096621801
1.29485178139277
1.29325590410503
1.29922996926154
1.28275756316403
1.26232834677191
1.26580463378911
1.26320121399518
1.26231021673773
1.24889503217639
1.24949058768723
1.25189413713376
1.24836377553858
1.26841328602249
1.55660527095025
1.63981544702167
1.66928458501905
1.68858258728634
1.68709256979312
1.75657394948184
1.75922309554042
1.74440506667611
1.71690891856072
1.62278590557588
2.40085194065237
2.63337623344742
2.74506661222294
2.82625202466135
2.82246851242925
2.85126871257405
2.85942373927568
2.77730164821356
2.67539920342335
2.5075736239698
8.5214093220199
9.91699642269827
10.8421065649461
11.741424755281
11.9201393812037
14.2718759825765
13.9393364803058
12.8400367431493
11.708220071932
9.34670779111971
14.36469087485
57.45618001205
71.4870470762569
82.6052007229488
94.5645819627381
103.306694009595
24.3373647822797
23.0851519434746
20.6948924956672
18.3241651591807
18.3528873043942
20.5046263237526
22.618991891477
23.6121628450483
122.94290029969
111.012048978388
96.1833722510609
82.5124246493087
64.6093220035115
14.4456207899147
8.58680792754689
58.2892798840857
58.1993026234024
8.72435423775884
7.85112716998446
59.1325073101714
55.2882157060399
4.41179929582819
4.29004227246151
46.9755630830371
42.5636051655277
2.43965036593467
2.22813569734242
40.3633342038054
41.1826708565736
3.10773587970481
3.07765846724051
39.5434685553126
49.7537556371518
6.55708262727477
6.62556561849939
47.2599173579312
46.0691420569756
4.17500711920614
4.08720593909248
43.9733359881352
32.8138131833395
2.22053213057816
2.16700471134679
31.3732342644339
24.0517718805829
1.83892456459814
3.43196684269531
22.3967637928841
23.0391664851067
4.18887174143767
4.34353136692918
20.4281510318006
16.6422865552893
2.20362133817616
2.79699101486421
17.112003586203
15.3335258412668
1.44529119878888
2.75203964697024
19.2356836456797
21.2946122232352
4.14416501076842
2.23419665476508
22.3362285471477
27.061009597652
1.87104712159332
1.71756644965543
25.9687654830133
32.8364402991355
3.53126722709424
3.37069331476613
30.9238686206731
32.3276616579944
4.79178247905692
2.08729530829587
28.0610299673679
27.5415436855913
1.60104488340244
2.66562500577134
31.1176474931501
31.8772132569528
2.66246105674223
2.21529372969972
32.2423731372305
33.136079348638
2.22634083801653
2.23596709738298
34.1719582761388
35.3914299825354
2.24159891506957
1.71280303570891
30.5361176005937
26.6580197433748
27.6481034283747
30.4331604740772
33.2276591630149
33.8083983414565
1.2193638003807
1.18683041528593
1.14870728476021
1.14894371950688
1.45412648194582
1.47028631474118
1.17148566131074
1.17261814185795
1.21105712012016
1.23717097709088
34.9019856191567
34.3088815567063
31.3518848121264
28.4094484718165
27.3631390297043
31.5429198112054
1.74945096331976
1.85455268353964
32.6801913524413
28.1410399348368
1.4968990187897
1.20024838524399
1.20376397429455
1.24295781328988
1.26409795253064
35.9841161492133
35.3918438583044
32.2854019264594
29.191735800967
30.4990356362652
33.7858545855113
37.0545594086754
37.6104879378102
1.30361595146054
1.29012573092488
1.25132590711785
1.24645120587438
1.64152560303091
29.148732075716
33.89279693266
2.0137994766787
2.78585630616447
35.7576253635124
31.7820584652389
34.050041270031
37.6338011541228
41.1119238542484
41.5821644236418
3.46637628761074
3.436314662625
3.23493729545314
3.03502779185985
3.39997533108596
1.42357940060557
1.29265970408215
1.31245750894907
1.31862375082643
1.32074510500881
1.2202576919389
1.21998157601378
1.22385256215001
1.21705450274048
1.23746583811697
1.23911294767597
1.23849727862865
1.23937975692391
1.23575882726184
1.23722767564089
1.25799479439366
1.25734095915478
1.25912959461087
1.26069487010372
1.26906280215461
1.35643849781926
1.33889182781675
1.33632750072799
1.3343038745731
1.33484039763446
1.33677007483864
1.33666368005942
1.33810810215291
1.34131597332126
1.36291449642377
1.36042073415851
1.33910958487412
1.33610401831112
1.33489389292312
1.33503007260595
1.31383265057076
1.3138211241747
1.31469288613097
1.31710449689718
1.33526855216482
1.44641853504689