/*--------------------------------*- C++ -*----------------------------------*\
| =========                 |                                                 |
| \\      /  F ield         | OpenFOAM: The Open Source CFD Toolbox           |
|  \\    /   O peration     | Version:  2312                                  |
|   \\  /    A nd           | Website:  www.openfoam.com                      |
|    \\/     M anipulation  |                                                 |
\*---------------------------------------------------------------------------*/
FoamFile
{
    version     2.0;
    format      ascii;
    arch        "LSB;label=32;scalar=64";
    class       volScalarField;
    location    "300";
    object      p;
}
// * * * * * * * * * * * * * * * * * * * * * * * * * * * * * * * * * * * * * //

dimensions      [0 2 -2 0 0 0 0];

internalField   nonuniform List<scalar> 
208838
(
83433.0337064688
83433.7549288513
83433.7415547354
83433.9439295501
83434.1388196582
83434.1590919873
83434.1642487573
83434.1643538385
83433.7189194325
83433.7295217084
83433.7438291395
83433.7661603315
83433.8184590636
83432.9000813192
83432.8903791341
83432.8924925921
83432.8967100593
83432.8991960815
83432.3071907485
83432.3477835776
83432.3502382139
83432.3545118951
83431.6737923378
83432.0801472009
83432.3084750008
83432.3512256048
83438.9652121211
83439.2959098328
83439.5489865825
83440.135378336
83442.5589503777
83434.5122228896
83434.2392955035
83434.0502087019
83433.8996789963
83433.6756669557
83436.4839123877
83436.5809954956
83436.6173603563
83436.6474973044
83436.2784479063
83446.2464415416
83445.0315122206
83443.788635691
83442.8884033575
83442.3993880943
83447.5522761838
83443.3130682596
83434.7021730673
83436.449185198
83435.3334598437
83441.9643385748
83431.1082329554
83433.4606147075
83433.1270611194
83433.2441218193
83434.5024050903
83433.5282909705
83433.5364115607
83435.622066803
83441.8812337253
83431.9380797532
83433.8368860209
83443.4738828251
83435.8256342908
83433.9239285001
83433.6834129171
83433.9958956101
83434.2809476611
83433.7014296554
83433.4742092047
83434.0789045843
83433.0734319795
83432.994677918
83431.7760684258
83431.8217093656
83432.2517272597
83432.2042625876
83432.4115957585
83432.4421047123
83432.4491540567
83432.4517543405
83432.4509823603
83432.6799594602
83432.6760454346
83432.6661304841
83432.6466344901
83432.5348411216
83431.5882575335
83431.6764650902
83431.6932719109
83431.7020195463
83431.7058541194
83431.6814632127
83431.6780533023
83431.6700082917
83431.6554132076
83431.5935596982
83431.5864014609
83431.6486842723
83431.6687015003
83431.6790341188
83431.6830427406
83432.0832878143
83432.0834839364
83432.0791619958
83432.0684099296
83432.042974103
83431.9266697873
83431.9797760562
83432.0035212489
83432.0143405878
83432.0174489501
83432.5912051345
83432.583891414
83432.5663318575
83432.5343869925
83432.4653036459
83432.872172679
83432.5575804131
83432.4605897064
83432.4475866729
83432.4859743334
83432.4745289446
83432.753357769
83432.7677237184
83432.7747642729
83432.8159816757
83432.8091953577
83432.814153322
83432.8260176774
83432.8240876249
83432.8622032026
83432.869048357
83432.8449377613
83432.8518884615
83432.7989553203
83432.7270266399
83432.2003685473
83432.4401650966
83434.2914140192
83432.8683511945
83432.6799861393
83431.3193135564
83430.0875102157
83432.3015295167
83433.4852579151
83436.5859941511
83434.9414309625
83433.0405394681
83431.1354524892
83430.4391036016
83434.2433768083
83433.0808676545
83432.9081868737
83440.5907340068
83434.8451325192
83444.6689393936
83435.9907886129
83434.2280629884
83433.5448151874
83433.9398363339
83432.2263635604
83432.0640833523
83432.4391133411
83432.5259178595
83431.3895250177
83431.3610470904
83430.5071088439
83430.5126232561
83430.9668401719
83430.9693472012
83431.3506987134
83431.3347426433
83430.5577218049
83430.5941920953
83430.8463749782
83430.9174123311
83430.933886782
83430.9424769226
83430.9459469993
83430.9277578655
83430.9242356196
83430.9157472203
83430.8989458715
83430.8175671411
83430.0438977772
83430.1217928862
83430.1391791312
83430.1478374406
83430.1513508031
83430.1865097264
83430.1830774917
83430.1745507164
83430.1577469869
83430.0879482621
83430.308914581
83430.390956748
83430.4098180414
83430.4198121339
83430.4237993339
83431.0678204389
83431.0642641377
83431.0547684371
83431.0366730764
83430.9657613463
83431.3121396429
83431.4030815728
83431.4201127845
83431.429476728
83431.4330422172
83431.8527737453
83431.8487904702
83431.8390738552
83431.8198718926
83431.7415942699
83432.2406597067
83432.3601777365
83432.3828341119
83432.3950607192
83432.4001358149
83432.3654554473
83432.3606063859
83432.3486598604
83432.3226921775
83432.2242186871
83432.4165531563
83432.5182185122
83432.5516182359
83432.5649019373
83432.5691137061
83432.8211028161
83432.8159026419
83432.8039230505
83432.7772191609
83432.6214505605
83432.3811549615
83431.9162174607
83432.1962772929
83432.250837859
83432.3072578809
83432.3193468424
83432.6081017767
83432.6037658579
83432.5827318891
83432.5613008074
83432.9673617392
83432.9929364136
83433.0197001749
83433.0338851782
83432.4711299453
83432.4602186287
83432.416257328
83432.386775689
83432.1903664041
83432.7797058329
83432.1722781435
83431.5809204621
83431.2849232163
83431.7790891898
83431.360398411
83431.3025948726
83430.7646438334
83430.9385468728
83431.2110971569
83431.268996507
83429.2671182965
83430.1243496423
83430.6020554712
83429.1098169357
83429.8637240791
83429.9914764611
83421.6961143949
83407.4347955118
83443.7132533974
83431.1383314069
83440.6644883014
83444.322368159
83462.7034797797
83450.0227588413
83430.9227822248
83444.8017476708
83437.0566641588
83434.4187985439
83435.0188889978
83435.2788198775
83432.8225297392
83432.5431556952
83430.8767751573
83430.9915163738
83430.976844625
83430.894554877
83429.9766648944
83430.0175259948
83429.1272624164
83429.0981171883
83429.6973742192
83429.6971320718
83430.1835681561
83430.1999263902
83429.445757559
83429.4114622954
83429.7883063328
83429.8430897608
83429.003955202
83428.9395249792
83429.1805118491
83429.2472485066
83429.2651942533
83429.2741501725
83429.2777357657
83429.3365987665
83429.3332363109
83429.3246595559
83429.3069832747
83429.2406888747
83429.5205885099
83429.6078554955
83429.6273517448
83429.6373775778
83429.6413997791
83430.2353142917
83430.230992686
83430.2200978934
83430.2011596272
83430.0954195814
83430.8078732184
83430.9094820528
83430.9273793137
83430.9377426836
83430.9418618525
83431.8265257744
83431.8215741306
83431.8087078594
83431.7883878018
83431.6632020104
83432.0053673449
83432.1280147256
83432.1482924512
83432.1607031551
83432.1655486771
83433.3630098648
83433.3569886985
83433.3407808159
83433.3159151128
83433.1620988929
83433.1608165796
83433.3100516814
83433.3343182165
83433.3489664893
83433.3546310039
83433.0322305249
83433.0257411911
83433.0100780716
83432.9799048282
83432.8227448041
83433.9117839628
83434.0953958742
83434.1280146148
83434.1481836356
83434.1563241069
83433.5622619369
83433.5527399204
83433.5332996901
83433.5028986198
83433.2829654159
83434.5148728701
83434.7922763803
83434.8306982788
83434.8593848816
83434.8728846278
83434.137650504
83434.1153920847
83434.0815918643
83434.0433187781
83433.4415608263
83433.4762870163
83433.519087091
83433.537865674
83434.7868992371
83434.7608997389
83434.7102898646
83434.6521112954
83435.3770458363
83435.4351124094
83435.4810066211
83435.5090952714
83436.6935828624
83436.6753412149
83436.635748198
83436.5848421062
83436.2307010652
83435.0052478321
83434.3573488684
83433.4072347991
83433.8652039605
83432.9755746258
83432.4700438722
83432.1246166447
83432.2128813174
83431.5392539527
83431.4275305996
83431.1768199237
83431.2828848188
83430.6106092598
83430.4797804601
83430.0225807008
83430.3781766977
83430.5345905787
83430.2431463281
83432.7617661059
83431.6624147724
83430.7777763346
83432.4453556042
83420.9838768907
83425.9550099633
83420.575448159
83406.81301846
83444.8822925466
83460.5075288779
83443.5269959524
83436.611578801
83436.7622257873
83437.9835544906
83438.1812024613
83437.9350012411
83433.8413981957
83433.1252846735
83429.6793771274
83432.0736166268
83431.4397681602
83431.6508688365
83432.7069991806
83432.4812452418
83431.8546130785
83427.4091138167
83432.1221547825
83431.4669606996
83431.2443324378
83434.0765632552
83434.8698263289
83431.4225799174
83431.2387425188
83429.652312351
83429.6461150307
83429.7635122056
83429.7416477536
83428.5945150357
83428.6399815567
83427.7843712802
83427.7967717798
83428.3256505297
83428.3322314719
83428.9116802382
83428.9297244526
83428.0644013628
83428.0523668377
83428.5629503423
83428.5984805635
83427.6813102775
83427.6394527052
83428.0009413645
83428.0729885567
83428.2965178431
83428.3587599931
83428.3764423436
83428.3846948658
83428.3878919579
83428.3106351904
83428.3070808137
83428.2980643063
83428.279926272
83428.223136104
83427.1785654464
83427.2337571711
83427.2526826776
83427.2620106463
83427.2656095784
83427.3432930856
83427.3402553722
83427.3325689953
83427.3159796716
83427.2601391168
83427.5893273337
83427.6798712547
83427.6993764017
83427.7092683098
83427.7134047222
83428.7295087301
83428.7256106541
83428.7159832949
83428.6970796795
83428.6082238353
83429.2107585961
83429.3166742353
83429.3356950505
83429.3467175171
83429.3510851923
83430.3191525479
83430.3141300873
83430.3009998878
83430.2804105086
83430.1481068709
83431.0246892969
83431.1551836333
83431.1760882075
83431.1892868746
83431.1943191007
83432.670427006
83432.6643344727
83432.6475906803
83432.6226076996
83432.4582509058
83433.0202301132
83433.1771064157
83433.2014384739
83433.2176704849
83433.2236243889
83435.3749362136
83435.3676420992
83435.346825936
83435.3168804769
83435.1295050438
83435.0133097521
83435.1932282257
83435.2231718298
83435.2434802521
83435.2506614102
83434.845861026
83434.8387129836
83434.8192315261
83434.789378194
83434.6029575362
83436.8339664243
83437.0658891019
83437.1043407648
83437.1300951323
83437.1391195454
83435.925443368
83435.9151254473
83435.8881768316
83435.8467371156
83435.6217277284
83438.0452256897
83438.3361453032
83438.3904214788
83438.4258444962
83438.4389676928
83441.730627536
83441.7133077761
83441.666021695
83441.5938745965
83441.2140357297
83438.3367008724
83438.8100482179
83438.8782630852
83438.9323148522
83438.9577545151
83437.0569526438
83437.018042168
83436.9540343146
83436.8719886733
83435.8919574571
83435.9733028645
83436.0365874941
83436.0722089131
83437.2585272859
83437.2090090779
83437.1258939761
83437.0120884629
83438.4000114884
83438.5115513108
83438.5995380232
83438.6550731694
83441.5480704383
83441.5127073481
83441.4404012304
83441.3525335905
83440.7377149828
83437.7405094873
83436.5076446749
83434.8992734007
83435.5914218941
83434.7891764308
83434.2594672614
83433.0904659537
83433.3232914079
83431.929884515
83431.6949595086
83431.5975119332
83431.7564700392
83430.4188225979
83430.2885904301
83430.4797827214
83430.5479950767
83429.3478179811
83429.4817469181
83429.9631373502
83429.8940907065
83429.4942676651
83430.1139611069
83431.4821115563
83429.1670114132
83429.3304829202
83429.2944842546
83415.3162182678
83424.7749968022
83423.222463694
83401.416872636
83431.5910851952
83427.2027557504
83434.6243576938
83439.4056268481
83461.126444484
83452.4653031422
83434.0252628332
83450.003215231
83434.9141558708
83430.3389583417
83429.5120033662
83429.9889193228
83427.0042877465
83426.8511072124
83428.2937541136
83428.2978309997
83427.3013857834
83427.3383405592
83426.4477178504
83426.432861796
83426.8629785899
83426.832329856
83427.4217039732
83427.4450915035
83426.5998073561
83426.5967811799
83427.181112751
83427.155439946
83426.1501063954
83426.1596099952
83426.6436011305
83426.6126945447
83426.9681212299
83427.0387221849
83425.9398932296
83425.879581449
83426.1184005893
83426.1773364411
83426.197707282
83426.2074488882
83426.2114655515
83426.2732572558
83426.2699133745
83426.2629172156
83426.2481408576
83426.1871144946
83426.4545043939
83426.5434656959
83426.5616753111
83426.5715431822
83426.5757667835
83427.2311050843
83427.2248511469
83427.2107326664
83427.1869795583
83427.0590581165
83428.1930981899
83428.3132497511
83428.3338834858
83428.3457402879
83428.3505487224
83429.2819637831
83429.2766384293
83429.2627162562
83429.2412739208
83429.0926175726
83430.3635806074
83430.541979729
83430.5664678808
83430.583961697
83430.5902207268
83431.7686766661
83431.7625970119
83431.7459520143
83431.7216514276
83431.5560132644
83433.670570253
83433.8716899963
83433.9011953855
83433.922283516
83433.9296380452
83434.9144026977
83434.9069362548
83434.8855115901
83434.8551442033
83434.6577623631
83437.9875912745
83438.2057281397
83438.2470331542
83438.2755828137
83438.2851182012
83438.6134722634
83438.6041447468
83438.5763923288
83438.535187702
83438.3283063177
83437.8002106644
83438.013648087
83438.054103773
83438.0808452597
83438.0899557023
83442.2634754606
83442.2518692851
83442.2171991627
83442.1619590286
83441.9061104261
83440.0773465721
83440.3700943539
83440.4201204588
83440.453632121
83440.4649742292
83445.0464420254
83445.0318042576
83444.987585727
83444.9213478191
83444.5463109705
83450.5036263175
83450.956289783
83451.0400916457
83451.0960244836
83451.114242774
83445.8069174253
83445.7845560865
83445.7234416768
83445.6313133423
83445.1593912778
83449.714715975
83450.2658460263
83450.3726015249
83450.447240755
83450.4744626051
83444.1662520102
83444.1183525936
83444.0236303227
83443.9166200064
83443.1693944567
83438.8299339056
83437.0912391938
83437.7505048653
83437.9088056644
83438.0166070925
83438.0854870808
83440.0165493916
83439.9400991926
83439.8239198402
83439.6779645894
83440.1976558823
83440.3761228316
83440.5223110687
83440.626179434
83438.100639417
83438.0063810771
83437.8769806779
83437.6774378617
83436.855678405
83439.1759425723
83435.5572119749
83434.114964461
83434.9375579466
83436.0050463857
83433.476131507
83432.9726087938
83430.7945380778
83431.2039145366
83431.8406277848
83431.5065570155
83429.2978143139
83429.6570275212
83430.1742664346
83429.8865435859
83427.9710460684
83428.1491235895
83428.9513343596
83429.0192955255
83427.7116420179
83427.4072367008
83427.8786765897
83428.0974237419
83425.1076491025
83426.3912537861
83425.3694573422
83422.6839501132
83427.4312512484
83426.4115030295
83422.4592659905
83413.7136603746
83418.7945677159
83424.3252611346
83423.2258182349
83419.636895292
83430.2124172792
83445.0073417784
83433.3561678953
83428.6179683123
83428.1697980258
83429.9041507191
83428.4736878814
83426.8560423981
83425.7817583588
83426.5946512613
83425.2023454718
83424.3961154638
83425.2428548706
83425.383744732
83425.7344098087
83425.7842677714
83426.1494640988
83426.1317885417
83425.309005887
83425.2569472263
83425.560911926
83425.6339552496
83424.7310040256
83424.6629031158
83425.1248413615
83425.1251397053
83425.5011600734
83425.4960899283
83424.2027129883
83424.2514190253
83424.7848531167
83424.8466040371
83425.2436765165
83425.3067265871
83425.3152118779
83425.3227063899
83425.3301057533
83425.3008211932
83425.295347432
83425.28409665
83425.2631083444
83425.1628863728
83424.844988875
83424.8918448286
83424.821258913
83424.7786581649
83424.7620327992
83424.2429383392
83424.2353465725
83424.2117488759
83424.1894224873
83424.2372805343
83428.7028754382
83425.9103122575
83425.4507196254
83425.2086102169
83425.0846650435
83425.2061082446
83425.434469006
83425.9474909305
83426.7961126068
83427.5676374918
83427.4531484049
83424.2156951222
83423.9719324576
83428.2814513862
83420.7104963954
83423.5217162619
83423.2359357112
83423.5764861156
83423.6779058705
83423.7432961309
83423.7722273122
83422.1599458101
83422.0192642207
83421.7399221176
83421.2067213996
83419.5208777148
83423.5545252969
83423.6741261197
83423.714847902
83423.7262550254
83423.7568903131
83425.522892731
83425.4850050607
83425.4705042672
83425.4722737111
83425.309326448
83425.9946150764
83426.2166624152
83426.2467910757
83426.2675675657
83426.2793506037
83427.1279129539
83427.1189136341
83427.0989463215
83427.0746126969
83426.8685241305
83427.973956951
83428.1321301248
83428.1542840493
83428.16934665
83428.1760005605
83429.3494820182
83429.3417800802
83429.3224681582
83429.2962926253
83429.1010006677
83430.6194963666
83430.8529410902
83430.8861107993
83430.9115211104
83430.92097606
83432.4792201723
83432.4717427341
83432.4497458616
83432.4203398277
83432.2097717796
83434.8954121158
83435.154617542
83435.1924970998
83435.2207607529
83435.2300157983
83437.1353554507
83437.126202877
83437.0988623485
83437.0613509925
83436.8201116191
83441.486851342
83441.755108981
83441.8074064655
83441.8438289358
83441.8556106646
83443.3225481027
83443.3105088206
83443.2735679327
83443.2154357981
83442.9782739304
83443.0996438413
83443.3318996264
83443.3899127105
83443.4257670228
83443.4375835142
83450.5175874106
83450.5023017476
83450.4560532168
83450.3738982407
83450.1103253804
83447.785700601
83448.0980076745
83448.1732598436
83448.2179734909
83448.2329082794
83456.5836929853
83456.565444019
83456.5112474735
83456.4146541002
83456.0518786983
83467.3503374123
83467.7105306397
83467.8125692719
83467.8687664717
83467.8870514632
83458.7521513043
83458.7309936652
83458.6630043164
83458.5663548102
83458.0707040389
83466.9524737812
83467.3110748625
83467.4039633352
83467.4772911669
83467.4932990291
83455.1748221052
83455.1499969647
83455.0564110758
83454.959260562
83454.370324027
83445.1379977564
83445.866148489
83445.9998152189
83446.1213161931
83446.1794750508
83446.6829612884
83446.6238502322
83446.4895132284
83446.3290661115
83445.6148392445
83438.0600910646
83435.5272960111
83436.4112468165
83436.6301136963
83436.7628065995
83436.8717372766
83439.671152899
83439.5478645471
83439.3809525234
83439.1679652511
83436.0553401238
83436.2630912755
83436.4173421679
83436.5534001661
83434.0870467419
83433.9585699805
83433.8430316128
83433.6740382636
83432.9105582612
83434.7253246351
83429.251408972
83431.1177340837
83432.0199239663
83433.5806331384
83429.4874082047
83428.756313946
83425.4480484811
83426.2327860839
83429.5580680304
83428.9663844051
83425.6394314247
83426.2546558682
83428.4695466225
83427.9458991392
83424.8819591409
83425.1714020996
83427.1196720795
83426.9700963725
83424.5367621808
83424.5074107348
83425.8046451102
83425.7005301871
83421.2983169029
83423.2592616015
83426.4853710011
83428.4603618543
83428.8795534091
83424.8440009074
83423.0062679809
83422.6101352179
83420.0982601924
83420.193334355
83421.7067808421
83419.712353904
83420.2582311005
83421.1310127832
83423.0519536357
83421.86434042
83423.7938600179
83437.4965838637
83430.1128081546
83425.5925464173
83424.1708127833
83427.6949058821
83433.6205513229
83422.3892025746
83421.1865765777
83422.5508926061
83421.6144972837
83420.4074036688
83420.6912593152
83431.2141601414
83426.1791310807
83422.8183053454
83422.0294852011
83425.7567795578
83430.7781968619
83419.9742008267
83418.9560132735
83420.3025029531
83418.8931337076
83414.9032882036
83411.6436848021
83418.3820828503
83419.0244582252
83422.6063168887
83439.647435939
83442.8015304431
83428.2053236775
83425.0869579612
83425.200757009
83425.6206264619
83424.0652142708
83423.7437175913
83423.6277542546
83423.7384024151
83424.0099531722
83424.0300768451
83422.6916192196
83422.6648076392
83422.4865425321
83422.3345142296
83420.5400564666
83415.9738396027
83420.1621387079
83420.9378150216
83422.1083208448
83421.1970723628
83415.8999593483
83421.6750427006
83423.401698487
83422.1151840975
83427.5085688923
83425.2411169025
83424.9738604789
83425.4133176886
83425.1571791623
83425.4982439291
83426.4392295793
83426.6879815708
83426.7179815849
83426.7478012925
83426.7766992275
83425.8619305677
83425.8137103555
83425.7821181763
83425.7499005981
83425.6206013915
83425.8854908105
83426.2702072962
83426.3698782219
83426.4253635984
83426.4682339767
83427.3056666997
83427.2814206989
83427.2439626382
83427.1986022046
83426.8920587587
83427.7867277708
83427.9815234331
83428.0045172802
83428.0267304379
83428.0365909914
83429.3057567435
83429.2927248203
83429.2642495437
83429.2326134501
83428.9787097593
83430.5879873903
83430.9249104246
83430.9684176846
83431.0060844438
83431.0236567016
83433.1186057426
83433.1070462019
83433.0746398587
83433.0325465029
83432.7529264404
83435.6390361065
83435.9829917063
83436.0387691425
83436.0806584637
83436.0952776505
83439.1732206546
83439.1615725275
83439.1250765615
83439.0753744064
83438.7579396875
83444.2284952911
83444.6200910047
83444.6857394611
83444.7328831915
83444.7476382248
83448.7789439313
83448.7642936775
83448.7179251124
83448.6454315702
83448.3452702348
83450.3912151248
83450.6512588422
83450.733912573
83450.7810545591
83450.7963599036
83461.8707605716
83461.8539127364
83461.8033589415
83461.7000379618
83461.4435140347
83460.3758018555
83460.6455761885
83460.7524839673
83460.805179692
83460.8229921675
83475.5534568576
83475.5395580485
83475.4980133631
83475.4040091413
83475.1738638752
83496.2726084852
83495.936616533
83495.9219424835
83495.9004141198
83495.8929235697
83482.3765123168
83482.3704094062
83482.3443646587
83482.284937234
83482.2164798945
83500.3002002651
83500.2724952551
83500.2738104997
83500.261995395
83500.254625464
83476.6734505503
83476.6734086841
83476.6193264962
83476.5461044599
83476.1196255782
83457.7459538627
83458.4697215557
83458.5674880056
83458.660967941
83458.6800844722
83458.1806072467
83458.177016586
83458.1340102245
83458.0997103323
83457.6322718412
83443.037732568
83443.7803044421
83443.8708918902
83443.9656970654
83444.0230783828
83433.4053045464
83433.3730396747
83433.335621376
83433.332139497
83433.0117474458
83428.3966081424
83424.2714436668
83426.6228585938
83427.0286109023
83427.2773749651
83427.4380166532
83429.8083400263
83429.7034430252
83429.5929383925
83429.4795113465
83418.4672041557
83418.5369476886
83418.5909340577
83418.6923487766
83420.4576704709
83420.5670375113
83420.8325511039
83421.3211187209
83424.4825952368
83418.3199569799
83418.5209828838
83429.2735321377
83422.7439507111
83422.4812878001
83421.5080351325
83415.0833899311
83419.9860701274
83417.841824575
83415.857872326
83429.8587302904
83406.5401714047
83406.2518719383
83399.1639321147
83397.0366803096
83397.331014823
83396.6703499783
83410.1070920261
83409.6604090521
83420.224880443
83420.5775285787
83416.1852908808
83415.8110874751
83421.6032510983
83422.4159148768
83417.8833460603
83417.4098338244
83421.9074952615
83422.3115000587
83418.4297991866
83418.0429114777
83420.8091879111
83421.3749232401
83417.0669446921
83413.9244213717
83424.4575423132
83422.6772449253
83420.2490393334
83424.6671755081
83416.1984814706
83421.6070674313
83417.9798150628
83416.1820784609
83412.8528616543
83413.7651469103
83411.203743605
83410.4983519978
83417.8457666747
83418.0904445927
83416.9954508518
83416.6616841969
83420.4705243024
83420.7888990876
83420.0401758103
83420.1802666921
83418.126741683
83418.7624811933
83417.696742836
83415.6880487209
83406.7871734826
83416.5728379368
83418.3103057127
83407.3969276846
83392.8447262404
83416.2431475927
83418.2467110564
83412.6068900686
83396.7101550467
83411.414603012
83424.9292566449
83429.6001448183
83439.9361158447
83430.6853838543
83434.4259760604
83427.4145612568
83429.2334095723
83439.7650360466
83421.4319842667
83421.7195924829
83420.3699587844
83413.174128934
83414.1176194666
83420.539759405
83422.3628076692
83428.0108787805
83422.2924236233
83422.6529783832
83423.2555364885
83422.8847903105
83425.9666849534
83424.7153298291
83423.9968445025
83423.6169178966
83424.957395727
83424.8956988459
83425.2137628015
83424.8044745717
83425.0980215346
83425.91698496
83426.888676259
83426.1153292522
83426.9038735576
83427.165906861
83427.2338807646
83427.2638382094
83427.2949805002
83428.2507732006
83428.2248008609
83428.1839293383
83428.1400913831
83427.8702020163
83429.1741966666
83429.5278266702
83429.5841400911
83429.6336650092
83429.6668467386
83428.7072085407
83428.6666123789
83428.6248538942
83428.5546165339
83428.2933190379
83427.2826678338
83427.9554654468
83428.7322401315
83427.991735658
83429.3216946945
83429.6920930308
83429.7911298267
83429.8506958292
83429.8967045538
83431.0689329608
83431.0273532595
83430.9607954138
83430.879161687
83430.3760233909
83432.528819212
83432.9744118094
83433.033589285
83433.0843334493
83433.1086044978
83435.5080034405
83435.4734130537
83435.404112475
83435.3241265318
83434.7280862534
83439.4200644148
83439.8541574931
83439.9291929486
83439.9839066132
83440.0029759499
83445.0041958488
83444.980386354
83444.9111627849
83444.8187305234
83444.2811024517
83451.9932578783
83452.4267120753
83452.5053226439
83452.5613006963
83452.5782469878
83458.9268802297
83458.9105253343
83458.8583178329
83458.7676207605
83458.4731435379
83473.3406529624
83473.5015232958
83473.5772275543
83473.6183496311
83473.6296686879
83478.0960856905
83478.0854723068
83478.0514537585
83477.9762150986
83477.8044706517
83501.9197257296
83501.2664194678
83501.2210763269
83501.1809620271
83501.1662606949
83534.1386034228
83534.2015150463
83534.3706606649
83534.6547437574
83535.8739603225
83524.6868867905
83524.0064868232
83523.8454116941
83523.7429546923
83523.7041879481
83542.0329293571
83542.0873686406
83542.2397874968
83542.5475132591
83543.8522156478
83525.9384263773
83525.5590526999
83525.4304422137
83525.3604508806
83525.3325194443
83504.4331707722
83504.4434360554
83504.4730421456
83504.5504247279
83504.828611688
83490.4717704106
83490.5234074005
83490.4924955349
83490.4860674667
83490.4759991281
83471.5282300793
83471.5231466389
83471.5099280429
83471.5910583511
83471.8261991945
83476.0206867772
83476.6839449621
83476.7211386059
83476.7526312246
83476.744751573
83471.258300352
83471.2554813358
83471.2332484333
83471.2350487361
83471.0798878297
83456.9417357737
83457.2682373313
83457.2320227249
83457.2318906549
83457.2214711322
83443.716956045
83443.7135630671
83443.7013065658
83443.8030819321
83443.6064199719
83438.432458056
83439.0192319713
83439.0251806751
83439.0366898365
83439.0306125645
83427.7946464123
83427.794677921
83427.7695043665
83427.7590273029
83427.6444763395
83420.1217928172
83420.4180660471
83420.4905868357
83420.5347136407
83420.5509983836
83416.8313493679
83416.7929314658
83416.7432069502
83416.6610601193
83416.4673824841
83416.1025520231
83416.1767326056
83416.3139217108
83416.3816391579
83416.4652997579
83408.8471798848
83408.7499845759
83408.7346793191
83408.6362694784
83409.4021692992
83407.6248146364
83407.0250002799
83408.4655592826
83408.9647670317
83409.2337581016
83409.3644346355
83409.2667092789
83409.1789950491
83409.0545353508
83408.7570652348
83398.1114918154
83398.277053221
83398.2960550996
83398.3626366703
83396.870653055
83396.6530446371
83396.2622718756
83395.5463234532
83392.7921971649
83397.6016853079
83397.5750547131
83388.1150638839
83389.522649655
83388.7324793502
83380.6902768206
83380.4732125373
83379.4084745329
83378.6104185533
83371.7805667714
83371.539602936
83390.428457084
83390.7311304966
83405.6713176766
83405.5243441616
83400.9967142157
83400.3434593713
83411.1573971613
83411.0845634252
83406.7277697342
83406.7590518767
83413.4818266413
83412.718148226
83406.3378299446
83409.1820082776
83414.6946274866
83413.9008515774
83409.1470377266
83412.214806134
83414.6771274195
83406.1406620066
83397.8395603352
83407.4666541994
83403.2541732418
83400.5254520866
83397.9159893993
83399.1794345377
83396.252263609
83396.252181782
83409.2487470882
83409.8079039097
83408.2329018281
83407.4723257763
83415.6821871318
83415.9515125968
83415.0952146746
83414.5288706902
83416.261422164
83415.9686018104
83417.0409650416
83413.0110438302
83414.058161735
83418.7951393097
83419.9194051081
83419.1425370716
83424.7432465127
83422.7478091175
83422.536943705
83421.5041299459
83425.5248054803
83424.8262937551
83423.8654928101
83423.1442141353
83423.1259770616
83423.8488872535
83424.621338019
83424.1617107303
83425.3420788268
83425.6656787642
83426.1590769155
83425.8376920816
83426.6363368746
83426.9373354134
83427.2827927326
83426.9258476097
83426.433432556
83427.0501146543
83429.0582319478
83428.0281572087
83429.8613612466
83430.3810561055
83430.5204037556
83430.6039167549
83430.6648410661
83432.2984132828
83432.240108584
83432.1455325476
83432.0289325167
83431.3372528772
83431.8515628752
83432.7844592878
83432.9473274069
83433.0797734291
83433.1643786279
83430.7882540377
83430.7021059291
83430.580449765
83430.3795921891
83429.6253380856
83427.0620098188
83428.6866064002
83427.0176295798
83424.6669050581
83428.2284128473
83431.4389067522
83432.7047478123
83432.9256177883
83433.1083047945
83433.2347486502
83429.8170436386
83429.6919729503
83429.5330857908
83429.2629830655
83426.485087901
83426.7924164286
83426.9841898979
83427.1464241522
83431.3528107421
83431.1778280788
83430.9554338291
83430.6778086891
83429.2172180403
83425.2088170487
83420.0922170294
83423.0836000512
83414.894357098
83415.7081537883
83419.8668428072
83421.10787156
83421.3857713472
83421.568059581
83421.7718320393
83426.0734605139
83425.8600624122
83425.6221445704
83425.3225714243
83423.2953776127
83437.7260359821
83439.1397007265
83439.2840386236
83439.4403566858
83439.5438255327
83463.7588648388
83463.7595188712
83463.704674437
83463.707147424
83463.0958968125
83496.5773362033
83496.2750878508
83496.1634246442
83496.1053496806
83496.0760729298
83523.4193326456
83523.4760036075
83523.625072198
83523.8796092372
83524.8576535951
83562.7300024145
83560.5107958694
83559.9733967276
83559.7004079848
83559.6035084059
83566.9390541256
83567.0435350784
83567.3435812487
83567.9370561485
83570.4617308387
83570.4230963978
83568.1447322551
83567.6003287153
83567.325140105
83567.228346779
83558.5154825301
83558.589252818
83558.7957929346
83559.2092816867
83560.859918943
83584.2852956535
83581.4112712797
83580.9412326947
83580.6791584582
83580.5918628818
83560.6767321548
83560.7533491934
83560.9677573231
83561.3320288359
83563.590925572
83535.3319327621
83534.4582062327
83534.3162065618
83534.2455686652
83534.2203994901
83511.5783801105
83511.6017343416