/*--------------------------------*- C++ -*----------------------------------*\
| =========                 |                                                 |
| \\      /  F ield         | OpenFOAM: The Open Source CFD Toolbox           |
|  \\    /   O peration     | Version:  2312                                  |
|   \\  /    A nd           | Website:  www.openfoam.com                      |
|    \\/     M anipulation  |                                                 |
\*---------------------------------------------------------------------------*/
FoamFile
{
    version     2.0;
    format      ascii;
    arch        "LSB;label=32;scalar=64";
    class       volScalarField;
    location    "800";
    object      k;
}
// * * * * * * * * * * * * * * * * * * * * * * * * * * * * * * * * * * * * * //

dimensions      [0 2 -2 0 0 0 0];

internalField   nonuniform List<scalar> 
209453
(
0.0158049976706778
0.0168273017627827
0.0223833087358883
0.021262222394901
0.0165574839869094
0.0164655513084264
0.0208300662991307
0.0201789591434198
0.0197707387515863
0.0157907196847842
0.0160114573573285
0.0155311981865827
0.0153833984303945
0.0154604674924333
0.0155983462901543
0.0161723637863151
0.0211263365085097
0.0208377960177629
0.0158862121198253
0.0159752546422434
0.0222452918002414
0.0223612324402269
0.016294537181782
0.0156834528345535
0.0155352501179743
0.0156203152267446
0.0157724333624066
0.0165430472260438
0.0236474405625004
0.0235496816455246
0.0161775419919699
0.0167397196148102
0.0247217736075741
0.0249209874643522
0.0171705863356951
0.0173117641004345
0.0253215340242783
0.0238008991747577
0.0169744366660177
0.0171468456127164
0.0234351390385904
0.0226895672178046
0.0171523155483838
0.0169904392680659
0.0210300863500014
0.0196511496623524
0.0165795406436296
0.0160329685988406
0.0186255606018947
0.0171719345659575
0.0155530705918893
0.0152644659946256
0.0163347286034189
0.0157512201066333
0.0153141786950615
0.0150262950666021
0.0150622865534832
0.0150494562672836
0.0150148288661296
0.0150111359381517
0.0150081632544571
0.0150231911290594
0.0150384212839147
0.0150745594867387
0.0150476724718373
0.0152259552590361
0.0163415776832609
0.016391610858456
0.0152584616136923
0.0150607514884291
0.0150872167299167
0.0156036963536732
0.015701822731937
0.0152726564767132
0.0152904935620901
0.0150252626590484
0.0150264927936946
0.0155448818064238
0.0171624430403871
0.0169934095090338
0.0154243461004044
0.0151092515673919
0.0151671104954792
0.0151829672785479
0.0151177775128739
0.0154491700543472
0.0156441046889863
0.015666078665634
0.0154657685521124
0.0153237947595726
0.0154462353366096
0.0152039232922342
0.0151313559350965
0.0150872085286091
0.0151274795466299
0.0152116021581408
0.0151447173923998
0.0152012804002963
0.0152675303020147
0.0153160840072879
0.0152607942540929
0.0153295466224784
0.01539172779664
0.0155303231347002
0.0154189274765602
0.015780745236451
0.0160064099287877
0.0163359135746887
0.0161724597346004
0.0173930822399342
0.0262363165212016
0.0263038416889051
0.017686550028376
0.0178011388127205
0.0267317322753545
0.0258513494733933
0.0174975221063971
0.0177587208176954
0.0267374674475547
0.0276196122341418
0.0177833795610122
0.0178464627473057
0.027345847052271
0.0278078667810824
0.0177397505784475
0.0177969568862126
0.0280190432191409
0.0307074848653742
0.0193230775070292
0.0188963662406431
0.0297805470567987
0.0290381262753446
0.0183299539178424
0.0185415768496079
0.0307765233034312
0.0299255005972628
0.0178347569366513
0.0174075532944782
0.0269032167908954
0.0246799377432195
0.0172495558322676
0.0168041281556184
0.0238094539587934
0.0221858275409927
0.0166958044739655
0.0165817606144202
0.0207671293094328
0.0195443046903218
0.0163204165413283
0.0162472028598701
0.0194023668311389
0.018487931516671
0.0160178479233614
0.0155545784768996
0.0172471453885931
0.0164286460245757
0.0152819444857513
0.015054831296742
0.0150201073664744
0.0153218679948147
0.015828009870184
0.0158364271505579
0.0152869895645714
0.0150116294143336
0.0150342894351406
0.0150180257632167
0.015007880656751
0.0150132686586955
0.0150342498618147
0.0150387102962643
0.015148970014031
0.0150953374434829
0.0151871001155767
0.0164385927575377
0.0164407595029492
0.0151168130003997
0.0150163964459613
0.0150045129101242
0.0152883782780416
0.015830209465772
0.0159096357531627
0.015343715737033
0.0150013415081968
0.015012627959552
0.0150085934515527
0.0150047277482483
0.0150025687303666
0.0150050110443191
0.0150086027352325
0.0150038026312562
0.0150053476547821
0.0150157753450499
0.0150105913722046
0.0150050298165209
0.0150033241026625
0.0150043950853396
0.0150016830392438
0.0150013743375316
0.0150032694715929
0.0150044070418454
0.015008819160341
0.0150061375205355
0.015007472324771
0.0150168373371469
0.0150631199599441
0.0150327295505963
0.0150198539107014
0.0150293742479558
0.015075820998758
0.0150561934457696
0.0150822538222901
0.0150999269147042
0.0151327796437427
0.0151179359186758
0.0151572877906687
0.015192424952051
0.015235444024781
0.0151998644354806
0.0152432428130178
0.0152812827451158
0.0153342370661795
0.0152911218385655
0.0153449110730194
0.015387465918152
0.0156687325695032
0.0155515269313808
0.0156321632554444
0.0157306997878096
0.0163824503332356
0.016230558204152
0.0162313458099491
0.0163747177365529
0.0176267253217352
0.0177207670251864
0.018076397670648
0.0177940825025858
0.0177346933880743
0.0179628291810617
0.0192956509434308
0.0321964602342016
0.0312316545199814
0.0189192151461949
0.0184021335401768
0.0308710633836363
0.0323835024370277
0.0185812682195817
0.0202465696868582
0.0344511063869861
0.0342273234978872
0.0196463300817149
0.0184358951943893
0.0310413121504952
0.0280356005009192
0.017305282830562
0.0169420472620956
0.0256644241673882
0.0253281105702587
0.0164371062770359
0.0163868930204295
0.0236295655608694
0.0221422916850226
0.0163743497531048
0.0163755345709839
0.020721932857792
0.0211357505719741
0.0164339946207874
0.0163605816063284
0.0194959840677128
0.0192716809032197
0.0160935423344532
0.0157615480208308
0.0184038592880835
0.0172328690969119
0.0154241732228435
0.0152511541952814
0.0172105453965018
0.0174151777540457
0.0153793647127638
0.0151596610484909
0.0165732349806051
0.0166609625629084
0.0151422954834946
0.0150112519287919
0.0150038413448045
0.0153738829022649
0.0159613342956351
0.0159023031258918
0.0153415417608358
0.0150023101783795
0.0150088789682211
0.0150059761184103
0.0150026362198525
0.0150025996380914
0.0150062533423364
0.0150064064137032
0.015002464210425
0.0150024502643552
0.0150065241427275
0.0150068155733263
0.0150017178916026
0.0150009480291165
0.0150008548489761
0.015004667405541
0.0150051580740777
0.0150151019523695
0.0150127983654951
0.0150307273047026
0.015039921129465
0.0150869479373131
0.0150689382888599
0.0150940184423905
0.0151069758290131
0.0151363792466887
0.0151273496394104
0.0151144692434089
0.0151250062718218
0.0151586120289138
0.0151487761207888
0.0151547024417276
0.0151693552508062
0.015206935501216
0.0151913279456666
0.0152286642032495
0.0152453007454988
0.0152821629635392
0.0152658691447312
0.0152857069930689
0.0153024440818756
0.015408175911406
0.0153667007818728
0.0153747888288229
0.015417493158798
0.0156999826665954
0.0155881556776462
0.0156273366856878
0.0157332152393127
0.0157853277503091
0.0156972194311584
0.0162992181256051
0.0164426974123442
0.0164321772390056
0.0162892539488473
0.0164814926635028
0.0165957149851089
0.0178466121257201
0.0181009274196087
0.0194847021005276
0.0355384055384294
0.0335364447335725
0.0191784090645528
0.0199696394956375
0.0207799268196649
0.0382821578194451
0.0355900876393502
0.0340233551581231
0.0190974504119036
0.019753844164749
0.0360634907238972
0.0386541145244392
0.0429951777341542
0.0215395661190301
0.0204098959018163
0.0193042502845564
0.0188135138015318
0.0188468823678477
0.0193110453800296
0.0204996880532923
0.0214642653472213
0.0457332525465564
0.0410328913271434
0.0432395885907476
0.0205686117563471
0.0207444219618682
0.039806942180992
0.039722608125964
0.0207828712266926
0.0207115538667783
0.036612560772017
0.0204489991145068
0.0180836095672757
0.0204676653698043
0.0403108560202912
0.0351369373784479
0.020158617227356
0.0195730147245881
0.0327011274804618
0.0295560448873005
0.0175425036700449
0.0166040600754513
0.0272941027465031
0.0280721786103896
0.0165687114764167
0.0164851793298736
0.0260440586977604
0.0242812144426371
0.016456939337175
0.0164501352791011
0.0227565617011637
0.0234892680797366
0.0165528186518306
0.0165795871195197
0.0213925982120733
0.0205311227131904
0.0164123260599205
0.0160193914386179
0.0197792137617376
0.0189778288301818
0.0158646569853281
0.0158741847679213
0.0196711022723737
0.0181593166985608
0.0154652125754935
0.0156209319584391
0.0185623133389041
0.0186799842401732
0.0154691568660042
0.0153448821631449
0.0175316153616036
0.0173243713723234
0.0151402095528386
0.0150692646994239
0.0165555919620403
0.0165525937003324
0.0150712073590679
0.0150132142410782
0.0158998316621075
0.0153411552545427
0.0150033684329304
0.0150038636011067
0.0150084600588516
0.0150072194489141
0.0150026356873981
0.0150024024872445
0.0150076050662208
0.0150079517970841
0.0150022097144954
0.0150016511498057
0.0150126093537099
0.0150063754328707
0.0150049172245332
0.0150002381640086
0.0150000561787523
0.0150057491462149
0.0150043027424347
0.0150224532789201
0.0150379780521254
0.0150785598492326
0.0150528069400397
0.0150159479598429
0.0150226256683027
0.0150768817549608
0.0150479688897431
0.0151020784115468
0.0151408815532835
0.015166931921428
0.0151327211355102
0.0151734590223995
0.0152059926070675
0.0151436020731247
0.0151312957730021
0.0151671900462566
0.0151791122956037
0.0151697763652097
0.0151614463289721
0.0151954441147053
0.0152039705122284
0.0151930572691059
0.0151829967245243
0.01521754608507
0.015228064421307
0.0152622563490866
0.0152515066464319
0.0152701078354326
0.015281872984016
0.0153014183050434
0.0152844940538625
0.0153042697868764
0.0153225943714062
0.0153235159496825
0.0153053480755846
0.0153893578202814
0.0154296407389625
0.0154404633584269
0.0153998737109351
0.0154231004757879
0.0154641942098568
0.0157597420490824
0.0156603317829239
0.0157805218581668
0.0158422279920129
0.0165295657059203
0.016388571071681
0.016615779138215
0.0167038207615782
0.0172110541936863
0.0171277551061053
0.0186189411012677
0.0183516533311429
0.0171545659351005
0.0168531992798764
0.0163401778742719
0.0158367180415879
0.0157262800675275
0.0157299861277318
0.015676234886341
0.0156661037996602
0.0156316550243823
0.0157457937152512
0.0157311847827665
0.0162984210841983
0.0168636310718811
0.026846203609061
0.0238093576613675
0.0164505694124198
0.0158108025722739
0.0218200936807508
0.0201161766490215
0.0156097629616606
0.0153212315782072
0.0193234966336407
0.0182406719970731
0.0152210672231884
0.0152249319389298
0.0182247883959409
0.0173169764793211
0.0151434206807708
0.0153587687211607
0.0175243774425128
0.0166620204050829
0.0151468094683272
0.0150111891395207
0.0150055260254813
0.0153728569075425
0.0159609636113969
0.0159108057752342
0.0150130639430005
0.0150018390865396
0.0153425005368894
0.0152870849600431
0.0158055487266954
0.015015292619276
0.0150023422419362
0.0150034210155048
0.0150085930081819
0.0150069565536763
0.0150030522809319
0.0150043881716226
0.0150095637177996
0.0150128127671499
0.0150588723856674
0.0150553180065829
0.0151641699146288
0.0165770320214091
0.0164011324134999
0.0150995561196396
0.0151581989188833
0.0163851289947
0.0158073934964304
0.0152852767530298
0.0150065790109489
0.0150281727715295
0.0150147178767021
0.0150046577237883
0.0150097113746689
0.0150329100562225
0.015044111466662
0.0150091194964497
0.0150270163587032
0.0153128721895263
0.0157399400661638
0.0150625485822516
0.015280596318616
0.0163156908114913
0.0162936740677984
0.0162772434162858
0.0151432654816526
0.0152525647179766
0.0150607312050459
0.0150440773953326
0.0150190790003292
0.0150270028742112
0.0152725217219322
0.0152904668622859
0.0155948247289047
0.0156530509182465
0.0155925659050817
0.0154124799160372
0.0168737319615027
0.0169833458718056
0.0171594850369191
0.0155444683671166
0.0159815276710185
0.0185688498396958
0.0182579524754612
0.0179215602270035
0.0157002309095609
0.0158416833918611
0.0156362879413344
0.0154204145716126
0.0151318241239426
0.0152000573325877
0.0152267957046762
0.0151505609377877
0.0153083037449465
0.0154450967577977
0.0156581524574533
0.0154367173921125
0.015696628286046
0.0159197872798831
0.0189690262279902
0.0186178718903092
0.0195676308113966
0.0157364651969754
0.0159895550584627
0.0199251199026128
0.0205803763027573
0.0163908162142183
0.0164708308052087
0.020994034629774
0.0208357407422066
0.0205973353705672
0.0158018298090462
0.0161212376934739
0.0155671671928987
0.01541984600638
0.0152216260234959
0.0152770344149778
0.0153265217318094
0.0152746043092702
0.0152149990923543
0.0152480511998145
0.0152904215579955
0.0152559626036898
0.0152025701425908
0.0152148334445089
0.0152510793384892
0.0152386362309128
0.0152299861168797
0.0152390279825872
0.0152737443534161
0.0152641040861391
0.015282974737431
0.0152938424974006
0.0152817888547687
0.0152699819333368
0.0152898220586661
0.0153036304670141
0.0153034456629632
0.0152897310653427
0.0153098974855152
0.0153266201610881
0.0153450686837347
0.0153243624093812
0.0153253266743765
0.0153459211088807
0.0154508861314591
0.0154110298836863
0.0154230076260412
0.0154583874270221
0.0154723658939845
0.015438702925151
0.0154508122468272
0.0154852379751141
0.0154859897677856
0.0154517538918126
0.0156804020065439
0.0157644140296427
0.0157889262926887
0.0157044811684042
0.0158111166053477
0.0158674716969438
0.0158726153266771
0.0158333671773736
0.0159163784332656
0.0158766012821478
0.0158502051048225
0.01579423190372
0.0157905284582975
0.0158490929369173
0.0157681202306444
0.0156779361007692
0.0156674885526105
0.0157566654996787
0.0154717281822114
0.0154352278077391
0.0154350789238328
0.0154714675478789
0.0154859026268173
0.0155219313670711
0.0155384375001351
0.0155474135247742
0.0155472773210507
0.0155617254222477
0.0155619907264376
0.0155637414276252
0.0155632688450976
0.0155718044497139
0.01557010625799
0.0155870737185491
0.015610123464664
0.0156131188330276
0.015673127424811
0.0158132460688569
0.0159015836559352
0.0154452837312741
0.0154720491855416
0.0161896322046344
0.0237844939382081
0.022099540824361
0.0159362698451654
0.0155761243658224
0.0205820900255235
0.0205525714899243
0.0157769604230285
0.0153607205816025
0.0192930420861713
0.0200036686595766
0.0156792208229168
0.0154758875097007
0.0186406336917129
0.0185121688873897
0.0155234621589808
0.0153750143642609
0.0180439930788624
0.0180753774628562
0.0155749780049546
0.0153234648312763
0.017124216951276
0.0172039011052713
0.0154687728243504
0.0157221531852671
0.0182098018480322
0.0199873923539027
0.0163435296932692
0.0161649765849223
0.0192465694970394
0.0195369622688556
0.0165618527782543
0.0165846586677237
0.0201894517144817
0.0214808775462558
0.0168785152293732
0.0167046100965643
0.0220790688249255
0.0220452756502866
0.0219982204922861
0.0158653611502603
0.0162155707852005
0.015638890739859
0.0154916463985515
0.0155891404459946
0.0157366022564325
0.0153879853630012
0.015334009363794
0.0154088903024528
0.0154714352478398
0.0153350855017069
0.0152995933006175
0.0153447195007197
0.0153777179884363
0.0152862232593106
0.015274041621107
0.0152933567577222
0.0153064555462203
0.0152938309942931
0.0152829658759629
0.0153034022036984
0.0153165252818647
0.015316331111637
0.0153032330613383
0.0153243027538456
0.0153408165494106
0.0153272402534155
0.0153103076569808
0.0153211756621321
0.015335543272347
0.0153483220969362
0.0153351178673543
0.0153344992840391
0.0153474471057367
0.0153473267511627
0.015334363805456
0.0153484410526251
0.0153649149064329
0.0153653726333752
0.0153486972777431
0.0153495555669553
0.0153660553270533
0.0153659264197805
0.0153493975617878
0.015432760667824
0.0154657910109725
0.0154773076279393
0.0154463857794885
0.0154558549287696
0.0154877988680613
0.0155006847238299
0.0154680048220601
0.0154694998622201
0.0155019622584557
0.015774186435259
0.0156957428115478
0.0157312945778121
0.0158121049641675
0.0158913544004226
0.0158358012108679
0.0159038148689386
0.015927436609094
0.0162630294665331
0.0162737100073398
0.0163091203716555
0.0162994739607963
0.0167800132224818
0.0167010380802428
0.0172318450218243
0.0173082830888528
0.0189932448350407
0.0185900871257726
0.0208942636709215
0.0447566441430076
0.0408662710781216
0.020355168659966
0.02047571908882
0.0429422782739688
0.0451881431207311
0.0204560457067167
0.0207363379228877
0.0431069414792217
0.0436162975985367
0.0208310388195878
0.0209075330374905
0.0487818449114197
0.0441368304614131
0.0215330610162829
0.0223818473105584
0.0434381714638636
0.0379692900202853
0.0217082092461055
0.0214984979451825
0.0375334110221075
0.0350451582885616
0.0208233223650392
0.0203734959686284
0.0342804619390169
0.0366767289281471
0.0193426691212459
0.0180974070875443
0.0328669134499158
0.0303232635420405
0.0170773305874885
0.0168955008337853
0.0330989530482518
0.0301200645451979
0.0166746235441432
0.0166072868798243
0.0274764078617266
0.0252860098626302
0.0165669364090388
0.0165726728417524
0.0242618268144322
0.0228047037368398
0.0165570661767575
0.0161629248221835
0.0216937973671183
0.0205092575657473
0.0161127537886703
0.0160588238672063
0.0204443193596001
0.0159896644654773
0.0161029534474396
0.0161626546455324
0.021830994561979
0.022739814349919
0.0161460250648338
0.0160512826330749
0.0202822072701977
0.0153286950056311
0.0151298453469327
0.0151343785546311
0.0152870095628463
0.0159375492748353
0.0198891309177682
0.019113458693542
0.0156809129288955
0.0160323394221526
0.0194297565345719
0.0204126319919809
0.0164212090169822
0.0167967398179375
0.0211232536571717
0.0211287592030806
0.0166113476204867
0.0166571776690629
0.0217147246990647
0.0224658807169904
0.0170418215664734
0.0170282625940356
0.0231016524222191
0.0234129651146522
0.016900286296647
0.0162608960663597
0.0159073434932814
0.0227986041655534
0.0232477481752267
0.024360868237488
0.0239087110884502
0.0165018424679107
0.0169711860840076
0.015941113228628
0.015749230442953
0.0161478350031919
0.0164223365173136
0.0155842363950983
0.0155160477600204
0.0155451262578235
0.0156100975213571
0.0153993625011199
0.0153665838910083
0.0153649913763461
0.0153968323749437
0.0153064638729905
0.0152932871355277
0.0153142349826508
0.0153294519554593
0.0153291418726252
0.0153141093667632
0.0153358214409815
0.0153541202298683
0.0153413635505245
0.015324739605772
0.0153362867179201
0.0153502812845596
0.0153638062791353
0.0153511021819625
0.0153502412022687
0.015362912691868
0.0153630091112183
0.0153503653505545
0.0153354640014163
0.0153486004335756
0.015363287740625
0.0153507053473973
0.0153500303332878
0.0153627165647026
0.0153615884970233
0.0153492225779924
0.0153490735882835
0.0153614463390664
0.0153785820273373
0.015362995935319
0.0153634728824972
0.0153793793920684
0.0153798582919721
0.0153641466910549
0.0153640088476038
0.0153797209414473
0.0153937378236645
0.0153778425888656
0.0154584273851653
0.0154888683639201
0.0155032173563174
0.015471245691792
0.0154835344028089
0.0155163558766046
0.0155180911510077
0.0154855504326499
0.0157083681107318
0.0157851033043779
0.0158353963936679
0.015754283606093
0.015860311500116
0.0159168779988981
0.0159590515787594
0.01593837979394
0.0159750771539023
0.0159886083624531
0.0164772620124571
0.0164755906185787
0.016497762043996
0.0164944236469146
0.016858254881239
0.0167890673810581
0.0173284839968741
0.0173969063528743
0.0188485975888376
0.0185916728907158
0.0207491072374458
0.0475862357904268
0.0429669243734351
0.0203525304065173
0.0204137002734078
0.0463240873272114
0.0518462665230848
0.0207804574149584
0.0186539058573001
0.0188749160577699
0.0189561121972061
0.018747169627493
0.0208733147776257
0.0570219268839083
0.0502789055256827
0.0205219025359
0.0207210200233109
0.0543005009553835
0.0493414627750387
0.0204857274869133
0.0209284795577193
0.0479843887245507
0.0538831677917216
0.021408003685625
0.0211590650682758
0.0550552039585727
0.050429832421244
0.0239124009962225
0.0251964083246173
0.048626259066757
0.0415882722067873
0.0235696688419412
0.0233973922265231
0.0412646415728318
0.0384864219140763
0.0221703352945421
0.0204681314502349
0.0370749953117167
0.0432491195883271
0.021144080743984
0.0197173275693066
0.0404701929943307
0.0449710012142421
0.0189774590989589
0.0183370470211221
0.0404558212959516
0.0364665290098354
0.0173819720442299
0.0169636904859115
0.033939717416029
0.0310331594793442
0.0167977312069059
0.0166972684021457
0.0284690050127312
0.0261643025896069
0.0166162615438544
0.0162401080387698
0.0244421574567772
0.0229175048969954
0.0161924803866979
0.0162063752837484
0.0230206873676902
0.0242604083606731
0.0164377669314054
0.0172913231556688
0.0257034213575648
0.0273728137425609
0.0175718636040158
0.0174081904371317
0.0281539107110202
0.0301929594056614
0.01789311748108
0.0173585712327466
0.0298162222814466
0.0259236592852067
0.0166498898090292
0.0170572967889217
0.0256915997574719
0.0238418422864652
0.0162333497403954
0.0159973511110953
0.0221041129673224
0.0241991293473913
0.0165856997295019
0.0162755743225248
0.0216276408267047
0.0221131721995462
0.0168611487620899
0.0161228562728054
0.0207022849749521
0.020064844757406
0.0161557755780085
0.0163404354792635
0.0209187347131735
0.0218097254163705
0.0167731319005461
0.0168877445431798
0.0228810854093882
0.0227292692534176
0.0167358510722631
0.016933389290192
0.0233675446741044
0.0244066500741644
0.0173151992251346
0.0175526057322994
0.0248783717375997
0.0247787277770445
0.0174295159071627
0.0179609754112693
0.026357783783732
0.0256521550167833
0.0252076780919697
0.017148629300279
0.01769879230358
0.0183641528436075
0.0179114416063777
0.0268409586073157
0.0271578648076872
0.027975481300455
0.0184746729697097
0.018792582293359
0.0300484819084003
0.029239463386227
0.0293368840523274
0.0189586622062852
0.0191193198027348
0.0185227165285799
0.0180690355830078
0.0178095868759691
0.0183822462045464
0.0165063029125606
0.0162468960077244
0.0162311273632256
0.016495655732866
0.0156224443905397
0.0155515444577991
0.0155861073436318
0.0156550303172817
0.0156312597492026
0.0155711240749376
0.015390087900205
0.0154233780002351
0.0154166762331893
0.0153856406059004
0.0154063046171564
0.0154374974459968
0.0153549363608697
0.0153363375795808
0.0153485283575841
0.0153642064738543
0.015378428486432
0.015364220558917
0.0153630868494767
0.0153772870015422
0.0153766494793869
0.0153626080285788
0.0153512917103006
0.0153640509312377
0.0153799506073877
0.0153676801043493
0.0153670471605309
0.015379257482883
0.0153780575541029
0.015365924616634
0.0153661361997047
0.0153782531553415
0.0153939461059695
0.015381484434925
0.015365487837022
0.0153783925517498
0.0153774155217262
0.015364391465837
0.015363383853874
0.0153760302466428
0.0153758348759458
0.0153632106886565
0.015376822436704
0.0153924903733778
0.0153936286108785
0.0153774931437494
0.0153779783333186
0.0153939316850946
0.0154081633928103
0.0153916210429175
0.0153914713035145
0.0154078800877948
0.0155004098315133
0.0154700088764022
0.0154859979583116
0.0155184922815936
0.0155320851403975
0.0154985912857286
0.0155011001721822
0.0155342824356004
0.0157967006244774
0.0157204137355496
0.0157761105907554
0.0158585060403393
0.0159428811034522
0.0158847316824247
0.0159091623161752
0.0159689220090613
0.0160176749369983
0.016004378257467
0.01603395125779
0.0160470131714494
0.0166022169738257
0.0166139231023086
0.0166280979657185
0.0166063141099494
0.016941535689944
0.0168831045178728
0.0174443961550285
0.0175086420128469
0.0176415144659192
0.0175765298702138
0.0177209446703024
0.0177864008216638
0.0190601083882671
0.0188638169289443
0.0210012986620832
0.063261223779695
0.0550514471602415
0.0206653819502539
0.0210062547521635
0.0601148916315007
0.0609986147160932
0.0219374710371762
0.0213080763659504
0.061311041002464
0.057828200311176
0.0242970066640125
0.0265574897481131
0.0614807154038895
0.0556366437305682
0.0269258606306994
0.0271832764309463
0.0524577652029946
0.0452401708999794
0.0250578534173373
0.0247484885749438
0.0445497963540628
0.0484338839974035
0.0246925251768559
0.02338796042796
0.0480699094676674
0.0520493738476834
0.0235435773482429
0.0216016574445088
0.0495656474426212
0.0445515339747975
0.0202494710180996
0.0197805643377512
0.049913156808687
0.0448234505856804
0.0180893240428735
0.0176074772385667
0.0408588837701047
0.0372260364960763
0.0172411226213422
0.0170333180226255
0.0347359159683482
0.0317267811822755
0.0168012727722215
0.0166309350038169
0.0290548798365308
0.0266095859348891
0.0165292813354369
0.0170835341384622
0.0259851735227645
0.0268282975774225
0.0175988282368605
0.017688990048431
0.0284752168127807
0.030750832771749
0.0177864809684412
0.0179681879714832
0.0334176560977956
0.0363880994226168
0.0181485426306378
0.0178547541874431
0.0312336776500376
0.0338995441526368
0.0184626707082074
0.0179167965560387
0.0331083217020956
0.0285321098259415
0.0170659926569328
0.0178766472553316
0.0288564534268888
0.0313455554681338
0.0190635484556959
0.0185575205106077
0.0298907030185249
0.0268481141749607
0.0170040602801533
0.0174132304823252
0.0261305289381161
0.0285863745707197
0.01752114186766
0.0173412485853214
0.0264777152099225
0.0247273814843429
0.0172426247944137
0.0171678728007009
0.0231077965889053
0.0219104545700651
0.0164743885397358
0.0164042853041511
0.0215951450151669
0.0226998493079653
0.0170327524396743
0.0171202214197105
0.0249678766490854
0.0245742385624396
0.0170072144991571
0.0170003131932782
0.0244672317329713
0.0252844614483833
0.0174852659576389
0.0184824564146378
0.0273948047106331
0.0270125281291598
0.0185066377079302
0.0184122683400438
0.0276281179601121
0.0281525030876515
0.0188876123813627
0.0191576870295014
0.0306959367525982
0.0332303958379225
0.0192725302742388
0.0190910133951375
0.0323757289219982
0.0314826029673656
0.0321680627922935
0.019074965948654
0.0196333071358952
0.0183092473816898
0.0179639889235082
0.0163310122911316
0.016583415052658
0.0165302940184113
0.0162903500024262
0.0163325901992683
0.0165381491885866
0.0156878936088901
0.0156201650130785
0.0155937174573383
0.0156483440007683
0.0154493345636622
0.015414389954744
0.0154272545128233
0.0154576761805815
0.0154724347642639
0.0154439872170022
0.0154355174098025
0.0154612926379085
0.0154493111542031
0.0154245866793561
0.0153640910259666
0.0153784891806843
0.0153956534841311
0.0153818604900482
0.0153815399443005
0.0153950442773531
0.0153938354837161
0.0153802137332496
0.0153791616739332
0.0153925741909963
0.0154095402428644
0.0153957995002268
0.0153840022740289
0.0153966638318723
0.0153953721654057
0.0153828116549501
0.0153812673007823
0.0153937105629987
0.015409891018488
0.0153967405799747
0.0153967211392238
0.0154100375668465
0.0153938026361579
0.0153801408845823
0.0153785489296734
0.0153923305889485
0.015390657800034
0.0153773570198067
0.0153771606327258
0.0153903886812323
0.0154065426491336
0.0153904574756135
0.0153913029944623
0.0154080198030438
0.0154227171434258
0.0154054470908149
0.0154055977235926
0.0154227150876656
0.0154223320433714
0.0154054286409949
0.0154818245587994
0.0155122164618224
0.0155339668087933
0.0155009491351804
0.0155140115082515
0.0155482039905848
0.0155508960500803
0.0155170460430853
0.0157328636675794
0.0158088454680397
0.0158816113744073
0.0157980921534523
0.0158200542907985
0.0159045664826743
0.0159950355237602
0.0159335093743307
0.0159578186214889
0.0160212134743878
0.016076127678087
0.0160627280996665
0.016092194244522
0.0161057627669188
0.0166944586676039
0.0167267623056036
0.016737218998933
0.0166941125072237
0.0170305841946877
0.0169827364357349
0.0170826276193048
0.0171243922565583
0.017220358736176
0.017186614453783
0.0178735794616967
0.0179365731194913
0.0191789396740329
0.0189967701128507
0.02115167460494
0.0703764671035151
0.0604869577068531
0.0208359696694816
0.0212330367799692
0.0669985057298128
0.069579566574382
0.0223867527558104
0.0215004090253529
0.068323012682835
0.0664404321052708
0.0240896397197668
0.0262457244717753
0.0709941557330039
0.0621766846583298
0.0267455649839095
0.0250885349479733
0.0514740179460712
0.0469012339257195
0.0249733079474267
0.0246816647395875
0.0459387364208588
0.0492950395651271
0.0246746031397029
0.0248236317949068
0.0546913847159633
0.0617778853553638
0.0252319242365225
0.023509421504435
0.0565028705239255
0.0631703625867785
0.0244160565113044
0.0228180881313169
0.0609134576330169
0.0499793745513502
0.0209733491191723
0.0209364225829099
0.0554307357937941
0.049212158275661
0.0187369565998459
0.0181379435423398
0.0466075325875852
0.0420924377581096
0.0176880116310231
0.0173244094861679
0.0381753895582002
0.0397695237583574
0.0179423226262636
0.017641757604531
0.0358978986754071
0.0324639830782146
0.0175118877885199
0.0174492023595662
0.0295936098528496
0.017387289720835
0.0173285573730715
0.017421164290981
0.0166947690730569
0.0156566333771503
0.0156112402985015
0.0170085972081599
0.0182635869598736
0.0309169570979823
0.0365682080024875
0.0182116123113808
0.0179616801906081
0.0336965368392517
0.0308684160356377
0.0177312310512445
0.0177693104262648
0.0301733482181397
0.0278787004059174
0.0172917058174626
0.0178480544690943
0.0295030086276404
0.0273627024353268
0.0175202918003719
0.0172700194924954
0.0255866789413897
0.0242198510183601
0.0171080154486072
0.016580682360166
0.0233001243817019
0.0245659123399764
0.016762930706784
0.017002116819884
0.02608898061699
0.0279175182951401
0.0175161821687002
0.0173187471350938
0.0260008853140962
0.0244028275012335
0.0171747789392928
0.0171461833519421
0.0162080247457701
0.0170372966260326
0.0245994590811179
0.0234931109642649
0.01715911349487
0.0170502439567558
0.0172438933584271
0.0165309023285315
0.0174322358258332
0.027204027203821
0.0288734884747694
0.0180139524403251
0.0173423300893779
0.0175994626058496
0.0180306009575835
0.0327323784048251
0.0298964412242863
0.0175959573634873
0.0182121281903471
0.0320343186433527
0.0340094006440528
0.0191424869636582
0.01974465940583
0.0310378647559258