/*--------------------------------*- C++ -*----------------------------------*\
| =========                 |                                                 |
| \\      /  F ield         | OpenFOAM: The Open Source CFD Toolbox           |
|  \\    /   O peration     | Version:  2312                                  |
|   \\  /    A nd           | Website:  www.openfoam.com                      |
|    \\/     M anipulation  |                                                 |
\*---------------------------------------------------------------------------*/
FoamFile
{
    version     2.0;
    format      ascii;
    arch        "LSB;label=32;scalar=64";
    class       volScalarField;
    location    "800";
    object      omega;
}
// * * * * * * * * * * * * * * * * * * * * * * * * * * * * * * * * * * * * * //

dimensions      [0 0 -1 0 0 0 0];

internalField   nonuniform List<scalar> 
209453
(
3.61365417879841
8.63421771798208
29.5168602886221
27.1836047947259
7.67725742783141
7.41583888721532
26.235467056724
26.5415069895672
28.1537026720192
5.81505483456758
5.56850093079757
2.93005953114692
2.73398835888624
2.89143298048974
3.05277460626715
6.10793998736503
28.169143930237
29.1580252802186
6.08437451356783
6.23288685735796
31.0736994166061
29.9403906911964
6.46027496199584
3.24933412362279
3.05345726821137
3.30475185725103
3.49721663067652
7.25815845881596
31.9402868980023
33.2852422699035
6.90284953124339
8.88852158506324
38.3308206289879
37.0212080925219
9.45224634098367
10.0959953476639
35.9649090021544
32.1670212678457
9.11772736677781
10.1093505852331
35.9769848856961
34.7379241002806
10.2601514814978
9.78492994109375
31.0073161577073
25.6635995547754
8.1373666938667
5.59080458515319
20.3732299076278
16.8696893067899
3.55628064184858
2.38847110812523
14.4795576958985
14.0528735987779
14.3078949835248
1.08329860089026
1.09912180874705
1.02230827778252
1.0038962664642
1.00292312306734
1.0020064660542
1.00596248269726
1.01298801576809
1.02855461505525
1.01317876687421
2.48493178949938
17.5239309325421
15.8854163060092
2.40821733095042
1.15515280753751
1.81382831012323
16.0655072014382
14.4258428658882
13.9025837830164
15.3789557211615
1.15330909829662
1.15752800023104
3.88395321733023
18.7305214776722
20.1815846104036
3.9260669652942
1.33467669683629
1.38300478640111
1.39071805012803
1.33774532499617
3.74297966900386
4.0122232759868
4.02974319120231
3.75344231853666
2.63644858146591
2.66395494706809
1.39962981156327
1.3426140689109
1.11180644668109
1.14343502974596
1.4188570928437
1.28938688012956
1.40528548620876
1.50940633130393
1.54074703739916
1.5104842221792
1.65451830766889
1.69055158964558
2.1035896993883
1.89103256979979
3.87798947783681
4.34702716750047
5.64363374287959
5.4742071625682
11.4938772258295
48.3321869743516
46.1561194040919
11.543121051569
11.8639613296571
44.4676340307141
39.9879370158558
10.7021915813703
11.4978596345329
41.0204700986514
45.5618120607615
11.5854675498511
11.9852025202868
47.0168668440146
52.2153402129576
11.7326797074338
13.2992166223213
61.223924188463
77.0513912577791
20.7243554607252
16.2160972456433
58.8103304625368
50.9779530915176
13.4494219489344
13.8802146658035
49.7405969115122
43.6211970331265
11.7544304035378
10.7327951553962
39.6245048542911
37.172004813977
10.428254100635
8.22797495770551
31.428395976712
30.0129683126861
8.00380087504424
7.76099505170092
27.6902758764461
23.8655563212082
6.73868418062746
7.31373703685725
24.5630637750874
20.4121035093218
6.11832091016997
3.83066570076601
16.1769717418246
13.6650929065518
2.4633507294129
1.03664837066927
1.00860174402624
13.8942970813509
13.2922705473982
12.1490820199162
12.044011494331
1.00304039036136
1.00997320430039
1.00309067162211
1.00125483014021
1.00310210757108
1.00942951912684
1.01168202228352
1.52896974806759
1.47064849147055
2.1860387515747
13.1957289414118
12.7852563280375
1.7834769248137
1.0057732054095
1.0016556028198
11.855329505427
11.9247130446648
13.2253417777014
13.9077561643485
1.0040865703727
1.00981701389419
1.00101309664631
1.00057839142636
1.00021018802425
1.00039200909912
1.00090735828868
1.00038338252334
1.00067357989514
1.00296614847233
1.00119652137373
1.00040800525003
1.00034157709355
1.00050812504069
1.00009681663159
1.00007034408929
1.00015261528729
1.00027330077033
1.00064979982475
1.0003315093897
1.00065854528117
1.00258639205802
1.07168704810984
1.03809860705626
1.00432805241399
1.00822253690544
1.0310744782756
1.02176281468664
1.03783962491331
1.04985490387026
1.07352050450114
1.06277096591731
1.17285269289708
1.21264724357486
1.25405233721974
1.21508792560786
1.26685411852715
1.30724749237521
1.39534969715166
1.3418668524905
1.44624421866697
1.50917874793176
2.54579622748159
2.30114878380133
2.55712778181733
2.7194248231469
5.71717874159439
5.55532865313011
5.5498730316072
5.70474398302264
11.2170376993958
12.7901491345822
14.4855511965321
11.8677914717087
11.4803100856954
13.7480846228677
20.4668154774015
88.6932160024877
66.3646878062988
16.2660559034957
13.5530275008745
56.937966694202
59.4300270044436
14.0968767196569
18.8898205969359
61.8019052257261
54.0976518227107
16.5281966541385
12.1459613642582
40.7937966517624
35.3118093856711
9.43990064323213
8.54607259914979
32.8573640310523
30.8759360888628
7.96185793401373
7.93557742992222
30.1856385110704
29.6304430563594
7.9672033430111
7.96835825223113
28.1144239619439
32.9198273774795
8.67954137660273
8.16565029704405
28.1826950701037
28.1864261868075
7.3783940301746
5.40129273645436
21.1722878891536
16.2155279642002
3.59866083073463
2.60659907807782
15.142863354611
15.9003758632769
3.60422192499635
2.20300714697336
13.4830825185315
13.8094212377939
2.07576868061504
1.01102064882929
1.0036679067232
14.9601036540129
13.9559892250507
12.8202299771747
13.6187198028646
1.00310927621377
1.00856983550877
1.00048006163119
1.00020673040983
1.00020743600108
1.00046716845696
1.00049398983589
1.00019435057155
1.00018572053213
1.00056347534166
1.00060871588706
1.00009718259872
1.0000211026693
1.00001798046428
1.00031920596739
1.00038169135478
1.00172349447022
1.001332782889
1.00693431707513
1.01138020335379
1.03469334385431
1.02458511385294
1.03510235788898
1.04521122885941
1.06210372456109
1.05517131187688
1.05153879681479
1.05818347200289
1.08487422701372
1.07751258321307
1.09259435357119
1.10505407639143
1.14393851350213
1.12927633985378
1.1771070233833
1.1948635086131
1.25953976097036
1.23444434403422
1.26852764958618
1.29898155153307
1.55099396856106
1.48432457609517
1.50787115104649
1.57565647443111
2.59603189684289
2.36176505553148
2.43328874677282
2.65446861996058
2.86182751618742
2.73353233030034
5.65782195743656
5.82275936001726
5.8054818743613
5.63056773413626
6.28672162873465
6.29168102617024
11.7652484968639
14.2125265931919
21.1450084849171
91.9670358294307
69.5548949011886
17.1365377810512
19.8774266623539
26.612446320126
104.243451218109
77.2197988123076
66.8750924492031
15.6926294147002
17.7325449579484
76.8197166552416
88.4036270153841
123.38361202019
29.703979895857
21.2236325673408
17.0758386742755
17.1018592530987
17.1766694001401
17.1101845011248
21.640273745106
29.1904448689109
130.162609416353
94.0156740101586
89.0160852059596
21.46057887846
21.0697516979242
91.2689233409448
90.800580605155
21.2202248312578
21.0923668971316
83.5171343829554
19.9997320914682
10.9829048235447
18.6463735507562
69.3415074424013
52.0253135796454
16.2975816414154
14.7033802683204
44.7586427454535
35.4453866402573
10.1471652515182
8.23881907288249
32.0919263115996
34.7867307419806
8.50971300264176
8.42788970776239
33.9536209910444
33.8932835320628
8.48561638650902
8.62147930392127
34.343268848652
43.7811407635627
9.61549686799254
9.96279230052698
40.1164441500024
34.00441633151
9.07692617993736
6.66246797392348
29.7448618869164
25.3125602848876
5.90830261087183
5.4844634174151
24.8844469484999
18.5318692581453
3.65193421008218
4.79454883828907
19.0576276867891
17.7774370851825
3.80019437722735
3.29544119286756
15.7710741015074
13.4752329666837
1.81002070474559
1.45464645674518
12.5243387284997
12.4917348004077
1.42252132296649
1.00767623690701
12.805199785791
13.6019592716268
1.00275036604639
1.00038209346042
1.00084059958481
1.00059252747431
1.00021250414594
1.00018615166297
1.00065768784402
1.00079190607564
1.00015386710785
1.0000941980033
1.00236568414186
1.00066210067034
1.0004032122405
0.999971609385348
0.999959180703692
1.00159631006096
1.00148043786516
1.00645130676082
1.01643865908056
1.03617475264784
1.01671961027141
1.0021923838316
1.00438321822272
1.0908981204889
1.05114088383955
1.11518498113931
1.1642019892402
1.19409484019893
1.14058452570513
1.17634047466389
1.23066867848154
1.07669487125126
1.0642677780049
1.09448711920284
1.1075553666899
1.09035344729492
1.08194793417484
1.11799151933019
1.12665571876484
1.12031695372811
1.11174538557512
1.15794890175088
1.16826178386414
1.2320665786878
1.2141777521433
1.24992227016862
1.27488319716252
1.30317185617688
1.27129012343365
1.31590905909276
1.35615987317421
1.34835537010696
1.30881775923837
1.52800467410915
1.5991612571875
1.62353471010069
1.55600806193177
1.60449778461871
1.6815216580393
2.70011436435968
2.49134969914434
2.99251966266522
3.02166499293981
5.99865079045275
5.8292080289065
6.56079772871774
6.47330173796514
8.59563823194345
8.972849754216
16.301228887685
13.5668336954205
8.16596766633909
6.73044215200254
4.58107911158598
2.67791012692544
2.3068243578852
2.32265936072077
2.35720133288215
2.33314925467503
2.28644130863069
2.93010744250256
2.89471635538978
4.69070207314517
6.73789408328709
27.2556364331978
23.2921136017833
5.82696535105657
4.52312834082573
20.7466983203823
19.2692667328186
4.16680346945489
2.23708755253229
15.2193524945805
14.3935377555119
2.06089586130848
2.00691863157541
14.3146777062075
13.4181588573846
1.77340140850999
3.19502605968118
15.6313128246806
13.7467368987967
2.01506927192591
1.01090188692429
1.00331601716467
14.9114810126569
13.9176106308246
13.172021627355
1.01404040526354
1.00856838172022
13.8527956976908
11.811953575581
11.6874944672424
1.01081144220571
1.00693647929159
1.00032413933763
1.00083510078655
1.00080400944887
1.00030239442374
1.00047874105814
1.00135167940387
1.00234280992093
1.29709156129245
1.34584099946552
2.17879909110793
13.4147702199347
12.1989917439394
1.62448958915281
1.93143680772559
12.3458469356745
11.8566926960381
12.0248778053351
1.00250059463631
1.00902386725633
1.00234013553603
1.0005464844965
1.00177150432531
1.00909946802029
1.01911087740803
1.00180714667284
1.09893310703204
14.2885422116721
13.9182944155888
1.10836945981782
2.52323196634737
14.3626937667518
14.3825695047351
16.1561018801226
1.65858957267144
2.3404305987256
1.1616061826073
1.15075627433615
1.18521126487248
1.16842600089377
13.8977378604979
15.3720833152224
15.495725605498
13.6983141917473
4.46610831735174
3.90303794185182
19.1208684758735
17.7117499967499
16.7645999975102
3.5454601504501
5.48873348646846
19.9951021851756
22.9946835153252
26.127699081727
6.0455223690158
5.71517955359845
4.21558255905534
3.60822345754154
1.36614100700952
1.47482530939532
1.48608114222751
1.37392691736224
2.49394152268611
2.72825703878378
4.22166859269253
3.61817852782003
5.69173175959281
5.70825904849443
25.5114285352483
29.5614823024315
28.0189429126136
5.72404686408773
5.83287061025667
26.4048824884578
26.0434019709246
7.50988425287053
7.73290767720754
26.9077360288508
27.8522458057698
28.7693905112525
5.92997553662395
6.28393511775263
3.05082948946806
2.69611380469293
1.41527751515427
1.53797280517268
1.57047322109687
1.49577920414049
1.21712548727684
1.27058729340191
1.31985309371379
1.26768205293187
1.13333771044582
1.14545169806026
1.20105752639606
1.1886333452415
1.16871259679179
1.18160732369779
1.25423437997285
1.23319141648179
1.27801718441646
1.30638210233971
1.27988582422415
1.25391897208258
1.30700718590616
1.34244889354296
1.33111966765499
1.29679449656178
1.3500607612875
1.39917141492544
1.41939309001036
1.36573195032204
1.35661731034915
1.40865699847765
1.65449106443123
1.57521823234986
1.59644945207662
1.6741694672822
1.70879068810752
1.63255932541599
1.66352920072828
1.7322642786981
1.73464156660408
1.66275238555034
2.49347503338658
2.67836148152506
2.7543403204409
2.56832923287008
3.00174543763645
3.05578741045145
3.07698266631121
3.1088126052431
3.4526131027679
3.08358607165714
3.03984157847848
3.01053336218711
2.98667606677677
3.03297210324735
2.71407024118889
2.51705581056837
2.48602256153722
2.68191008968569
1.70141548966515
1.6262434282844
1.62995553305851
1.70251442414714
1.73256137224345
1.7871106554828
1.83570526914367
1.84929421677741
1.85499870008649
1.88590295059453
1.88216646823775
1.88871772739221
1.89000629784185
1.93508572951028
1.92577176585681
2.01287536384681
2.20824047286503
2.2180871662569
2.51824719328023
3.14290916194169
3.39139467577395
1.80728741453518
1.85084737654115
3.87069969144677
19.2767233521102
17.9430779500077
3.36030359652969
2.71818649536447
16.3471365249608
16.816594760347
3.21601277117335
2.28048405305744
15.2089502959575
19.0872463043582
4.18708704395758
3.63566206963526
17.5225341233787
17.8778361570488
3.98680266003511
2.90014404809323
15.8586347506989
16.8110988096532
3.91389333501873
2.81901702531135
14.2387089918849
15.3744149951411
3.36641809641733
4.43046584951846
17.873324652263
23.1679461508759
7.02889179943344
6.12974453657899
23.0535666166123
25.4917257023559
8.1654336670809
8.72406082641408
26.3664085388227
31.931237790958
9.64233384376424
8.6244432369995
29.2465558324277
29.6529212689708
30.7212018882207
6.0264238670044
6.56716927709321
3.18528275382738
2.83019023892432
3.04440730149842
3.39916832354899
1.66895354137525
1.6061620846472
1.79671678898953
1.87508723104272
1.39704100828756
1.34260040864931
1.44619122134744
1.49875332284362
1.27801820418019
1.26059349547215
1.31284246351919
1.33763635812093
1.30634172917864
1.27803794203202
1.33991435432708
1.37835204090718
1.37344588355828
1.33497882707461
1.39835533896501
1.45400712715486
1.41677182616022
1.36398410292261
1.38851027457832
1.44315475084622
1.48282988983199
1.42747309607464
1.41814382206783
1.46457090395171
1.46874217691372
1.4204788419405
1.43769811936242
1.48560792288021
1.47809256091966
1.42371477499777
1.41695546154712
1.46415605834043
1.46600122551843
1.41561664135348
1.62861186299701
1.69837136763557
1.73306295385608
1.66553052125697
1.6756758973795
1.74660430813422
1.77693264297048
1.7036548309411
1.70387182742083
1.77244980426386
2.69409456505647
2.51308637871951
2.62485338995606
2.80239935717493
3.11221681093559
3.04644103408603
3.3468221509308
3.2430371706677
4.60497834547205
4.95756008403592
5.01414657759767
4.6711172384414
6.55789692738448
6.6496799390241
9.16059542625002
8.73557598595646
15.6633140003732
15.6410420604379
26.3049067786728
114.921959421295
88.2720962076026
21.1009179396799
21.0776742046846
85.7139861939288
84.8002876278176
20.5446051104264
20.8517964521457
93.7641810632062
94.9507569701039
20.9122358501449
21.0320422303507
98.8531789289743
82.0119160245572
21.5304581810241
23.3429560884713
75.4437322588289
68.3916361787602
20.7755168629218
20.0163448810147
65.6445428430202
60.9918206192563
18.3124204023229
16.842930946542
55.1189806934849
49.36105014577
14.0867242172974
11.4709151219952
41.4005280389545
36.8782700239778
9.46672075918502
9.79824195966912
45.5424825082719
43.7692955868695
9.44869679649205
9.42842489472898
42.6954348402652
42.9412454625299
9.47992362646759
9.62264470222293
42.330457537383
43.7511171641847
9.73779609825347
6.95385960280029
37.852867795485
33.4002296891715
6.88080123744783
6.72232243559602
33.456676927878
6.05923517990241
6.74140581514092
6.93181941107453
33.3620698943627
27.42487249446
6.41226043578705
6.33460644616739
23.4703637772381
2.4041449552648
1.15109214551835
1.12297560032263
1.92929115288722
5.41133541210491
20.9368960006941
19.6541530731517
4.06046193327696
5.85326527743498
21.5027513723126
29.2663504864729
7.77937197910115
9.11588022199455
30.0885461001327
27.7961387451305
8.07706641399073
7.87798237987995
29.0673646479237
34.4506997351661
9.92455800916566
10.0238008903307
35.6444564697112
32.1989669976752
9.23834375859203
6.64765050847924
6.06251286207867
31.6711628775714
30.6280341513717
34.2023132330617
35.4269705245467
8.0679895684967
8.93151567491116
4.0099232888321
3.56742884163666
5.15530613963289
5.79256742384194
2.23957965014494
2.13959441093358
2.21914753486668
2.32129343398541
1.56245854924342
1.50477367071002
1.50723742891417
1.56275973874896
1.33601895506326
1.31229328916154
1.38320691625018
1.41917140801043
1.41543705902223
1.37965895065785
1.4585082252985
1.51404544100518
1.46737558387451
1.40998159462583
1.44644756813868
1.50160118658304
1.54951166480588
1.49706284782182
1.48065072049666
1.53190008820859
1.54226435530123
1.4906499616739
1.44549532381894
1.49599176595272
1.54736286830586
1.49663487633942
1.47216524681253
1.52763379361168
1.50792513867966
1.4609794570121
1.46352487795006
1.5107423699104
1.52818602051999
1.48304329466311
1.46570789926528
1.51876551502057
1.50475374909016
1.45562255218855
1.45549882397003
1.50311035479291
1.53863222973451
1.49075042615993
1.69795721684463
1.76904082902453
1.78453928804869
1.71473623779002
1.74050283218662
1.82100955471605
1.81017133173401
1.74154790170616
2.53302423966717
2.71504633523226
2.85972882320398
2.68028389155746
3.10428013599569
3.17362811913363
3.30470736910147
3.44051617724397
3.54428423866573
3.37592436322819
5.30667667685303
5.61718441798404
5.6155163973033
5.29484050162073
6.69200316542963
6.7744995506294
9.30875153642757
8.85400204365109
14.7999943503793
15.3021119105716
25.1383466708357
105.93077468892
82.6391843882264
20.8263636971954
20.8286936185915
83.4632446978088
107.678097590618
24.922505733276
15.2723769229064
14.6603972764321
14.778426358901
15.4098371365377
25.0652286611552
111.705503369265
86.7588403970097
21.0576520303113
20.858404248058
92.8612923933785
87.7031838939883
20.4250905525688
21.28099368005
99.2655344993379
106.543540830956
22.453980863246
21.6040266821125
107.025367698897
99.618985579932
27.9408878116919
31.564172163375
101.211051300268
88.8143959332427
26.9154506090704
26.2495901552629
86.5273727852775
77.5342174923019
22.6411999721675
17.0743031405343
63.9113244601833
77.3899383304742
19.1500833126991
15.041838107847
53.6010396169928
55.2486846830616
13.5572979491408
12.3483027901969
51.4945837065157
47.9517924599782
10.6467781704635
9.90162278314171
46.129566565405
43.9821350333934
9.69078641361624
9.62755256861785
42.4256176386308
41.6850140496981
9.58510568808998
6.92857889504837
36.1004152417693
36.5504234871706
6.90406109061052
6.78518065808644
32.6799335132627
33.1557634854079
7.3703503587348
9.26182304439068
31.6596913395704
36.7883610499686
9.90469120255963
8.88648003793651
36.7271609031491
37.7336213165293
10.0644229902992
7.932163332807
28.8081715140122
21.0711212698923
4.92864006394959
5.70956995360219
21.5425111453706
19.3480309417186
3.99009908795242
3.51117761477593
18.482246831749
25.9555317035862
6.31279073557368
5.73696847405453
21.8900790861811
27.8879514712524
8.48284535683054
5.7925669509247
26.6157087616594
25.7940461067614
6.31561432853471
7.01531714042298
30.0668131206145
34.8951035728041
9.25719033379699
9.27090787643653
34.9075267940847
30.4330052023295
8.29807391809396
8.70158676000923
31.7652359169042
37.7304043697882
10.7844568456452
11.7795343441591
39.9676941485002
37.9863073936613
10.9487179259296
12.8383643450895
48.617678101903
42.8806349808157
44.6058560185783
10.5317281329837
11.612267101764
14.3905770406095
14.0413873688664
58.5810799176627
53.6989027098434
59.2440287863917
15.0332734074325
16.2762153863097
66.623583727246
64.4728354619646
77.3606368139822
19.473029663181
17.703436012819
14.9834356689581
14.5325281993191
13.288873595262
14.4004976244877
6.01150455524063
5.42187066209205
5.40277310658945
6.01788973993905
2.36270781232285
2.2413931353901
2.36657998611354
2.50014520125577
2.41795692768373
2.30825644197872
1.58918750643587
1.66069787861812
1.64664725126796
1.58145533857363
1.6747117457899
1.75387536911409
1.52881334145171
1.47367532923134
1.5257737849808
1.57600487990334
1.648279068226
1.60098544110662
1.57599409668155
1.62886208017173
1.63187088382357
1.57980073365724
1.52358371232015
1.57686982824878
1.6578869347449
1.60129977468443
1.55987890746738
1.6152449369133
1.58693469026334
1.53570877978797
1.54551058523856
1.59845056729201
1.65636362923504
1.59785231575122
1.54332464447048
1.59709433751786
1.57020595319176
1.51211812990893
1.498463091207
1.54864828631111
1.54991242657895
1.50161025261455
1.52415603377587
1.56952581039195
1.55800774656315
1.5038217788033
1.49098652508068
1.54414458676691
1.58123151638653
1.52356348944348
1.52357311706995
1.57330615928586
1.80517908346816
1.72815170428842
1.7518034523912
1.82613334537597
1.86517776665444
1.77756757575971
1.77958461498738
1.85446714183401
2.74059962533809
2.55639018123293
2.73841966243054
2.92078493918833
3.24745041087677
3.16711167593131
3.23335852773289
3.31964407176705
3.43574068457895
3.62249039895964
3.70387768970006
3.50868421502338
5.65271735762494
5.99293402746187
5.96173627534675
5.59578591952966
6.88255773162807
6.94290374165585
9.55364077254058
9.09096582618166
9.44374954562011
9.87969013936762
10.2700805407395
9.8705011456968
15.006272411031
15.6574101416958
25.375685267891
117.291778957514
91.2297221972944
21.45493454314
21.4314252500897
98.897869485671
114.939103212046
23.6414912843897
21.8962368284569
115.615413820215
115.737061635829
28.9007653358668
36.5631256172957
149.102056704663
151.313046778704
38.0860615402091
39.0850285148111
135.728183847742
117.786365912109
32.9944627171644
31.8519439911734
115.9749083703
121.720786575404
31.589797550004
26.8940634541
109.654696859511
108.396808439576
27.3843827099256
20.5902068123492
79.2608775763209
56.1141856639077
16.6248143364682
15.1894671361423
58.2030946243067
53.6723487379524
12.3609604842932
11.193154383576
51.0253020323698
48.5036769382206
10.4033097499375
8.81800778445816
42.6704560506423
40.9693586280008
8.19938638952593
7.78448948662992
39.9094833392253
37.92830784123
7.59588016090105
9.18549046360304
38.0097456764529
44.3601147457741
10.6537895322199
10.742681682955
46.8547233811034
46.8311138335412
10.7495157197877
11.1414451382586
48.144057930694
49.9352958974324
11.5029937367086
9.66932474902105
38.2813448302313
39.8712809470587
11.1760427514383
9.41494371266589
30.6110371376228
23.3430897787082
6.07312895725766
7.47050467796322
25.7973005380712
33.8664703979205
11.059591370941
10.1246572297084
31.5688831540597
27.4746850988953
7.20350832786205
9.3482777414831
35.3428364364258
44.8070965715384
10.397889577322
10.0182869165531
44.2315361883037
44.387221867528
10.1005405112397
10.1141886089904
40.1736026398333
35.5523563614419
7.37354822069154
7.11869739996577
33.4615148441
40.4752031781191
10.3347529157804
10.1858919042783
44.6238472938332
35.7158325628388
9.30467427123833
8.85649743119904
32.3134205740133
35.7553152840574
10.350606697682
14.8258905044283
46.5979550625985
51.2044026400975
15.3869232776051
14.8734418638951
60.1850847395008
67.9619701634449
17.3409016190994
18.3550493223404
75.3121607444279
79.099436878787
18.58095883468
17.3201946100225
71.7608130790506
74.7368518657314
91.1003601510895
19.7618128168372
19.9287177272687
14.0211859882006
13.7800199614075
5.71244332081408
6.32334988607664
6.15084341836817
5.58071398081259
5.76825200005185
6.25477309178987
2.66686148721083
2.52093742094617
2.41488756428806
2.52496861680818
1.7873621624082
1.69920775772321
1.76439078246716
1.8446979817584
1.93613617854132
1.86320557729966
1.84327057217341
1.91141779431576
1.8735028392781
1.81523285776969
1.63134038260694
1.67757708522046
1.81252235608928
1.7576281096237
1.71263046127449
1.75899000097264
1.7362188003139
1.67847702632302
1.66730468458273
1.72544790824104
1.85365605052179
1.78639481833134
1.69488304150407
1.75932304003478
1.69674454772613
1.63710609901172
1.59579047202552
1.65053713748971
1.72916126893136
1.67260193649522
1.64908449936002
1.72105774089258
1.64644353518657
1.58752122058497
1.54866534446554
1.61189840151725
1.58532020378571
1.53145467854624
1.53408301893115
1.58562235942059
1.60862526959307
1.56079152923392
1.53864711325106
1.59584577386127
1.63178966705819
1.57217503191165
1.5548932810798
1.61563996624416
1.60696436523428
1.5548394585891
1.75829918163473
1.8399271238897
1.87008353361944
1.78978469411373
1.81587327984213
1.90999364662713
1.90086419592634
1.81963840305894
2.58354044373573
2.76881794352688
2.98380195683275
2.80010612107797
2.86286024624772
3.04787846574532
3.40171704086724
3.30350741808803
3.37585963929869
3.48087051525771
3.57574772434562
3.78652347748419
3.87448180430719
3.65360940711984
5.88803676404467
6.26633722847263
6.22674682990318
5.82172876308539
7.12556162848665
7.13784669184873
7.33119411522682
7.41026503382558
7.71823189317865
7.54588899185285
10.7085308006885
10.3505134955408
15.3146587215113
15.9914039403492
25.8210469310569
123.595091562721
96.1189443536438
21.9956355969934
21.9312588241538
105.4261018798
123.831597464722
24.5621272080351
22.2928481989817
122.789421644544
121.871897005726
28.2578914788018
35.2955015372874
154.117871220845
147.8042594049
37.2991467345822
32.6972655314836
119.048203428339
126.592758082291
32.541696823154
31.521927003566
126.737245325771
118.373564667857
31.348564279678
31.6901838284925
119.755285414492
126.856485544823
32.7631178257415
27.1306443915718
112.648558108105
124.79597353302
29.7608065588404
24.556174181455
91.4946290121895
59.3766084685768
19.019271794368
17.5975160527757
61.4704016522321
56.4835172251754
14.060333885923
12.2707893431134
49.664511932076
47.0517687057136
10.8009384312909
9.66190989948306
44.7220428409803
52.5059171828035
10.9687003416384
10.3311114359057
50.159834152095
48.3183645613231
10.1038851934037
10.0795101526755
47.4447096515619
9.66133799488266
9.02250431961369
9.10492512919558
5.85489568128226
2.515131444494
2.38576913971525
6.84172308984529
10.8933667250482
41.3621700599032
50.8145268499604
11.8706074617515
11.3798459358918
48.5632333192639
46.2313868550417
10.7825104601865
11.1621624720295
46.0222552042836
38.7595328659367
9.33342614668004
12.1809244870787
44.3203240352521
42.7766555090823
11.1142734997738
10.476628207561
43.0399819027758
44.1915316144875
10.2553340443378
7.49896057550998
39.0507247028243
37.8063217794955
7.85138586290665
8.45852940587511
37.6618004634138
44.5999451564554
10.4984774393225
10.0813019035698
44.2597966219619
44.738110529748
9.87788033821477
9.74566388537253
4.63174074418065
8.36586842532368
34.8434058431581
34.3528277287208
9.444180433033
8.72355576542051
9.1518688929568
5.52683362990764
9.01026489125672
36.0195217772183
37.5803156407772
10.5331578834992
9.13159421843022
9.90386967773381
11.8742036452804
48.1499572185061
40.5252920639063
10.3091284372206
13.4640747644376
46.9216396927793
51.9951500730799
16.2577289953737
17.2923797988087
46.7477648956163
47.1027117785508
18.5166801069929
19.169820262832
46.7216141144117
46.7848388621481
19.7983493503624
21.9190203095637
49.1024189961471
53.1131444915253
21.901797949175
23.6741104876414
61.9243676794584
76.5063112378261
25.7107097810196
28.9830834856703
97.12162931705
102.132927665967
29.9348702003705
28.9185840489563
93.3436451524453
104.497021031576
121.807709990136
37.5837532044122
34.0813789509468
21.3407297106671
21.3936898079227
15.872591331849
14.7323447743017
10.0154520388004
9.65594758147692
8.79968689073242
9.43134434588132
7.92497231011432
7.36080754168897
5.62519995456521
6.01274408763101
4.41762004709649
4.23487738769612
4.22563062062539
4.39472720369457
4.32556060914315
4.14987093729351
3.99783444157407
4.1813803457541
4.11854149390494
3.90464981530149
4.0946595695491
4.3172313812485
4.50345739375569
4.2493057945614
4.20122463470737
4.44716693627258
4.38356555160557
4.12104949370834
3.94968159142927
4.18232729186087
3.832336902666
3.62791655598884
3.23957277177327
3.41331908555666
2.89958747419101
2.75840207781487
2.43845048045989
2.55095057860311
2.25376450219237
2.16836997750343
2.01528431212987
2.11921400124496
1.91828929407125
1.8355902902686
1.72935886984872
1.81608396156298
1.7309949568787
1.66681287292534
1.63125675621169
1.69914612668696
1.70597642159859
1.64632292790915
1.62620758280624
1.69371037502333
1.67561343012964
1.60624662318574
1.61075309293717
1.66945132227727
1.89941358473772
1.81293924362566
1.86301745895383
1.95652507911278
1.99949021107016
1.89385045522449
1.90398141878237
1.99700241981081
2.82361176847781
2.63847218987889
2.92611844161112
3.11145628085745
3.17407096019029
2.98813774176357
3.45163001402029
3.56929664852327
3.65343210342027
3.52801241640943
3.96488033857325
3.72881622711422
3.80973640140422
4.06030290075355
6.50387564064866
6.10542939094855
6.03257817274137
6.45748495340524
6.71167047308405
6.31209769982349
6.22478777511908
6.65712969142177
6.8967567759802
6.49328769622137
6.38367409355584
6.8381924139981
7.78342056401532
8.02286110531335
10.8634548717328
11.1541585557461
16.4180785095593
15.7151657621602
26.1272813191225
28.9398650379263
136.533791515694
108.071197316863
114.376156953605
23.49595306212
25.1271355629632
133.391463772151
130.595244002713
22.7735160724084
27.9715560274505
129.347668391227
162.77198108908
35.0034263363224
36.967050522782
153.091750746459
121.586407550181
33.1859224777801
33.9496652829189
129.386883729556
143.060140746184
36.8462762691996
37.3046513612475
139.542529907327
163.481696725576
47.6526458645574
32.7625167103943
147.614920279927
147.286310375842
35.8315754869675
36.2770948090713
114.771050882601
97.657739099746
27.3391798674174
26.0679900156564
82.1664297986922
60.2153993770476
22.6557253839775
20.343848941194
64.2837911801786
59.4673176015694
16.3153307205586
14.0368739403542
52.63825258682
61.9234233415371
15.2082858538256
13.3943625091082
58.354542251846
55.2479034212374
11.9726132756855
12.2176296393714
52.0954274640779
54.6202459828252
12.9518969621443
11.2181137898725
41.1557211591155
43.7600349608353
13.0835057966829
12.8189560415968
36.0089435541627
25.5016949264835