/*--------------------------------*- C++ -*----------------------------------*\
| =========                 |                                                 |
| \\      /  F ield         | OpenFOAM: The Open Source CFD Toolbox           |
|  \\    /   O peration     | Version:  2312                                  |
|   \\  /    A nd           | Website:  www.openfoam.com                      |
|    \\/     M anipulation  |                                                 |
\*---------------------------------------------------------------------------*/
FoamFile
{
    version     2.0;
    format      ascii;
    arch        "LSB;label=32;scalar=64";
    class       volScalarField;
    location    "900";
    object      k;
}
// * * * * * * * * * * * * * * * * * * * * * * * * * * * * * * * * * * * * * //

dimensions      [0 2 -2 0 0 0 0];

internalField   nonuniform List<scalar> 
209453
(
0.0158044825986149
0.0168268701574948
0.0223829233653512
0.021261968728535
0.0165572651491009
0.0164653850423369
0.0208298548578902
0.0201787961506466
0.019770565053785
0.0157906913579899
0.0160113785362214
0.015531087034258
0.0153832891941773
0.0154602072222103
0.015598076963538
0.0161720993979659
0.0211260914447865
0.0208375366765471
0.0158860092981247
0.0159747978993214
0.0222448741956967
0.0223608477811138
0.016294040692833
0.0156829303744726
0.0155348155178336
0.0156197109580416
0.015771564425173
0.0165423752927869
0.023646858321299
0.0235490665244092
0.0161768749456332
0.016738845477976
0.0247209335484754
0.0249201680459611
0.0171696465451029
0.0173109529860946
0.025320620303841
0.0238002840044496
0.0169737775440803
0.0171461615774337
0.0234345988077069
0.0226891375085025
0.0171517355931775
0.0169901467360368
0.0210298552531896
0.0196510380324354
0.0165794370746784
0.0160329531528638
0.0186255114915772
0.0171719232766382
0.0155530617064309
0.0152644633134786
0.0163347253231392
0.0157512184739138
0.015314178702339
0.0150262949554398
0.0150622845936243
0.0150494538591615
0.0150148244738754
0.0150111312107552
0.0150081599227921
0.0150231977395567
0.0150383888296037
0.0150745586349856
0.0150476979744703
0.0152259543049235
0.0163415763702885
0.0163916070632636
0.0152584555727894
0.0150607464509418
0.0150872174209681
0.0156036962013532
0.0157018209031232
0.0152726564815373
0.0152904935625764
0.0150252626216159
0.0150264926582744
0.0155448836610148
0.0171624342143394
0.0169934048600313
0.015424363603086
0.01510925523013
0.0151671327879197
0.0151829961491249
0.0151177815058257
0.0154491753332848
0.0156440949162965
0.0156660590591798
0.0154657737095602
0.0153237851679997
0.015446222722601
0.0152039299033663
0.0151313543143242
0.0150871164656057
0.0151273958248866
0.0152115010887708
0.0151445781998059
0.0152010260723074
0.0152673063993782
0.0153158404386471
0.0152605001603452
0.0153291914779518
0.0153914015279374
0.0155298348391611
0.015418482483691
0.0157800208105214
0.0160054201989486
0.0163348418526018
0.0161715707666584
0.0173919160899986
0.0262351108115764
0.0263026659131961
0.0176853381560426
0.0177998004241795
0.026730410715815
0.0258503008251464
0.0174966034670985
0.0177576645001256
0.026736200694277
0.0276180124672117
0.0177818821908642
0.0178449652643986
0.0273443291839664
0.0278061818129575
0.0177381866656121
0.0177953600952792
0.0280172287019322
0.0307045377228562
0.0193206729344551
0.0188944236189355
0.0297780676694949
0.0290359719956277
0.018328097280089
0.0185393597552987
0.0307737377302937
0.0299224621204999
0.0178322399401076
0.017406002828478
0.0269014550489493
0.024679119953724
0.0172485314875478
0.0168035857872849
0.0238086248956024
0.0221854737994944
0.0166954365863331
0.0165815087534193
0.0207669420620286
0.019544206694059
0.0163203305828701
0.0162470543888233
0.0194022958664528
0.0184878946150398
0.0160178128187307
0.0155546038595092
0.0172471336696148
0.01642864185927
0.015281964948934
0.0150548201045394
0.015020095362838
0.0153218679152142
0.015828007492608
0.0158364260314813
0.0152869895369556
0.0150116238173721
0.0150342875668031
0.0150180237417572
0.015007872592058
0.0150132612583739
0.0150342645481736
0.0150387246605039
0.0151489627518737
0.0150953585677289
0.015187119980753
0.0164385902178106
0.0164407598001192
0.0151168477189899
0.0150164111969058
0.015004519198631
0.0152883783124502
0.0158302087307691
0.015909632796146
0.0153437150128989
0.0150013296403167
0.0150126103395696
0.0150085639483268
0.0150047152748766
0.0150025565251137
0.0150049844917391
0.0150085763763387
0.0150037889021408
0.0150053356093466
0.0150157553225256
0.015010570359486
0.0150050083353104
0.0150033157098836
0.0150043852630595
0.0150016693994756
0.0150013621533961
0.0150032354364543
0.0150043732798365
0.0150087604821004
0.015006078792883
0.0150074473982417
0.015016816366279
0.0150630774712665
0.0150326832068362
0.0150197645935654
0.0150292756168327
0.0150756503753082
0.0150560431937423
0.0150820704660759
0.0150997565510635
0.0151326055446179
0.0151177478458462
0.0151571260012828
0.0151923168491968
0.0152353170272253
0.0151996856476276
0.0152430356486112
0.0152811249078698
0.015334021665358
0.0152908711010122
0.0153445960513158
0.0153871674509001
0.0156680851816803
0.015550942843492
0.015631447551648
0.0157299110269479
0.016381255934664
0.0162296858698772
0.0162306195898657
0.0163736120209596
0.0176249893528949
0.0177191990201037
0.0180745038736604
0.0177921762967226
0.0177324847927368
0.0179606669188093
0.0192929602504299
0.0321915160403957
0.031227771450869
0.0189170290085515
0.0183998488948675
0.0308675085942841
0.0323789834784937
0.0185782268601536
0.0202428542036003
0.0344460068553924
0.0342216745702724
0.0196420774581972
0.018432871435564
0.0310364833623169
0.0280328460596141
0.0173036234823993
0.0169411301433714
0.025662752470492
0.0253263526100547
0.016435978705821
0.0163861652227546
0.023628672706774
0.0221418804145238
0.0163739097675518
0.0163751345120639
0.0207218109951599
0.021135539554601
0.0164333475778244
0.0163603926525116
0.0194958982091302
0.0192716113234325
0.016093402038662
0.015761499709534
0.018403832337188
0.017232861383721
0.0154241968930292
0.0152511958934448
0.0172105460017923
0.0174151745393208
0.0153793494011759
0.0151596535354321
0.0165732318145431
0.0166609569493416
0.0151422678431118
0.0150112262392575
0.0150038395570477
0.0153738831347027
0.0159613291144178
0.0159023012935984
0.0153415416511544
0.0150023039207475
0.0150088595249775
0.0150059453030916
0.0150026232512266
0.0150025866788632
0.0150062170671655
0.0150063685862797
0.0150024511232458
0.0150024361272278
0.0150064897447055
0.0150067797951318
0.0150017047845332
0.0150009350203915
0.0150008428770782
0.0150046327010486
0.015005122686629
0.0150150320533948
0.0150127320449517
0.0150306227387191
0.0150398036899867
0.0150867738407171
0.0150687765932822
0.015093854779677
0.0151068011750065
0.0151362028934011
0.0151271829338214
0.0151143102706002
0.0151248307716556
0.0151584303400339
0.0151486100598383
0.0151545063926645
0.0151691718180132
0.0152067371997753
0.0151911188424322
0.0152284358936843
0.0152450796868937
0.0152819102251354
0.0152656149182013
0.0152854272063744
0.0153021581913681
0.0154078554890379
0.0153663699577801
0.0153744108891121
0.0154171127228656
0.0156992938165956
0.0155875320192795
0.0156266599557955
0.0157324711393777
0.015784373769781
0.0156963611975088
0.0162982323222065
0.0164413578255222
0.0164309069587634
0.0162884831416615
0.0164804038923538
0.0165939724064337
0.017844183923409
0.0180983594820951
0.01948120999558
0.0355309388544949
0.033531016995505
0.0191756270561917
0.0199661807602497
0.0207754417778941
0.0382722077629529
0.03558301956808
0.0340177195736732
0.0190938423768634
0.0197497605053958
0.036056460024805
0.038644215220634
0.0429800175431803
0.0215336633748146
0.0204054672564703
0.0193005185121447
0.018809867310075
0.0188430142948337
0.0193072457099026
0.0204949521880813
0.0214580423814045
0.0457114788566702
0.0410181410381862
0.0432196269375386
0.0205633270011883
0.0207393934376543
0.0397930129237872
0.0397111512016698
0.0207783538904549
0.0207071822768385
0.0366053176328205
0.0204445032734891
0.0180793602693336
0.0204621244327637
0.0402991962624379
0.0351277371957592
0.0201539912406159
0.0195674878638777
0.0326946649068995
0.0295521300471454
0.0175393519038285
0.0166021698824163
0.0272915208729587
0.028069735829777
0.0165661557645884
0.0164835804954643
0.0260421766918332
0.0242802446212755
0.0164557101474911
0.0164491702286555
0.0227562073468876
0.0234886123354883
0.0165522165624293
0.0165793341663694
0.0213924241278827
0.020530989494436
0.0164122173004336
0.0160191161500057
0.0197791640752481
0.0189777946209475
0.0158645359210333
0.0158740517887696
0.0196710811888066
0.0181593181459581
0.0154652310677069
0.0156208006505027
0.0185623078480114
0.0186799661273289
0.0154689891282075
0.0153448280816704
0.0175316085462828
0.0173243672546958
0.0151401229390557
0.0150692212092895
0.0165555915455286
0.0165525940503665
0.015071190970335
0.0150131993677419
0.0158998307242587
0.0153411550972136
0.0150033601842415
0.0150038521764091
0.0150084372618949
0.015007188463074
0.0150026244814134
0.0150023903326174
0.0150075692970257
0.0150079308248502
0.0150022015823499
0.0150016460335285
0.0150125900241121
0.0150063513701693
0.015004892939366
0.0150002322290504
0.0150000477840007
0.0150057537902239
0.0150043056807498
0.0150224434787347
0.0150379814441547
0.0150785613319635
0.015052779104063
0.0150158989454875
0.0150225748721261
0.0150768068252331
0.015047896947616
0.0151019687996442
0.015140768594276
0.0151668196908181
0.015132609487686
0.0151733473142977
0.0152058809975848
0.0151434340785004
0.0151311205079632
0.0151670168264747
0.0151789459759963
0.0151695971505949
0.015161276265341
0.0151952704362296
0.0152037874657235
0.0151928674088893
0.0151828227505775
0.0152173617051007
0.0152278639926658
0.0152620445172752
0.015251309898314
0.015269901595918
0.0152816509722073
0.0153011557786553
0.0152842324829189
0.0153039968409545
0.0153223161589617
0.015323216272498
0.0153050575349786
0.0153889940980759
0.0154292738230239
0.0154399957655528
0.0153994303529188
0.0154226306163489
0.0154636917945068
0.0157588894536825
0.0156595741652217
0.0157794769442172
0.0158410510528933
0.0165279836784191
0.0163874480450921
0.0166142535212389
0.016701759479766
0.0172083836028088
0.0171254709184164
0.0186157994760951
0.0183488720402167
0.0171512924150152
0.0168501956478175
0.0163379403612818
0.0158355943189997
0.015725316072602
0.0157289974420129
0.0156752235167459
0.0156650745364794
0.0156308242620985
0.0157446681768551
0.0157301463677785
0.0162969043657705
0.0168616639980829
0.0268477928278252
0.0238093720376885
0.0164497256806314
0.0158102473848006
0.0218199940144445
0.0201161283538278
0.0156094424582642
0.0153208641136899
0.0193235268266726
0.0182406769193964
0.0152208872038267
0.015224749231904
0.0182248036288574
0.0173169773529592
0.0151433490201227
0.0153587418968491
0.0175243909665151
0.0166620252303093
0.015146813543771
0.0150111802702075
0.0150055272081315
0.0153728570360092
0.0159609638703087
0.0159108091155231
0.015013070438096
0.0150018340519419
0.0153425002454613
0.0152870848292698
0.0158055494664813
0.0150152766096142
0.0150023368496184
0.0150034117642866
0.0150085680010561
0.0150069399787284
0.0150030452435908
0.0150043778236806
0.0150095626759393
0.0150128009480838
0.0150588561601874
0.0150553018831724
0.0151641578612637
0.0165770361468347
0.0164011346945162
0.0150995271007288
0.0151581671160248
0.0163851306329323
0.0158073938579631
0.0152852767501587
0.015006574602269
0.0150281542474149
0.015014704953256
0.0150046511089684
0.0150097077985021
0.0150328962840639
0.0150441115086502
0.0150091219517506
0.015027016459004
0.0153128722044599
0.0157399409480186
0.0150625482094383
0.0152805966850841
0.0163156925432413
0.0162936754004211
0.0162772443970917
0.0151432658718825
0.0152525667590273
0.0150607317156733
0.0150440759174806
0.0150190808493918
0.0150270029573368
0.015272521728049
0.0152904668684945
0.0155948252855457
0.015653051831175
0.0155925486043298
0.0154124667278942
0.0168737340230108
0.0169833484187867
0.0171594901002619
0.0155444518710277
0.0159815103166108
0.0185688657220288
0.0182579599319359
0.0179215658966488
0.0157001922641798
0.0158416403258143
0.0156362436001647
0.0154203586038883
0.0151317649876541
0.0152000256293242
0.0152267363224537
0.0151504813721603
0.0153082212471764
0.015445028046698
0.0156580935081921
0.0154366472504415
0.015696565451887
0.0159197315374149
0.0189690544370142
0.0186179019386792
0.0195677316070678
0.0157363955547301
0.015989495802206
0.019925214056686
0.0205804584509549
0.0163908191339073
0.016470841733763
0.0209941286403571
0.0208358580570232
0.0205974613139116
0.0158017932899317
0.0161211948789313
0.015567076772401
0.0154197336298655
0.0152215004449321
0.0152769151144877
0.0153264037438337
0.0152744857233069
0.0152148886484526
0.0152479411643276
0.0152903136046244
0.0152558544218418
0.0152023981839252
0.0152146692131802
0.0152509188586226
0.0152384658243125
0.0152298076479601
0.0152388390826504
0.0152735493898385
0.0152639189136285
0.015282786747669
0.0152936446468239
0.0152815742798571
0.0152697819211198
0.0152896177428871
0.015303412262772
0.0153032176677502
0.0152895186820905
0.0153096795959016
0.0153263861043223
0.0153447740440852
0.0153240783221319
0.0153250253215128
0.0153456064769795
0.0154504682811803
0.0154106315390919
0.0154225975808192
0.0154579594175296
0.0154719202816462
0.0154382770524446
0.0154503122753178
0.0154847066373138
0.0154854561787379
0.0154512520080373
0.0156794929140574
0.0157634097271295
0.0157880110985959
0.015703650274924
0.0158099830581851
0.0158662347733317
0.0158713727306135
0.0158321800741034
0.0159148998227847
0.0158753450819609
0.0158490109667233
0.0157931611155949
0.0157894519752189
0.0158478992966062
0.015767248006427
0.0156771507851212
0.0156666630428949
0.0157557492799498
0.0154712137082841
0.0154347436793752
0.0154345959934569
0.0154709543234439
0.0154853709670301
0.0155214332251406
0.0155379125905773
0.0155469279458514
0.0155467945101672
0.0155612817489672
0.0155615500656051
0.0155633088852699
0.0155628389113253
0.0155713644698727
0.0155696682753054
0.0155866146432098
0.0156094896871125
0.0156124407176863
0.0156723520542372
0.0158122195867769
0.0159004984262513
0.0154445003095688
0.0154711366735748
0.0161888663523519
0.0237851933607561
0.022099625942599
0.0159357406471143
0.0155754764151042
0.0205821927358759
0.0205527179324277
0.0157762946411549
0.0153603280532864
0.019293099176956
0.0200037804686141
0.015678943053962
0.0154757690923527
0.0186406748547628
0.0185121974870331
0.0155233239701714
0.0153748611865566
0.0180440150800882
0.018075397267561
0.0155748497725849
0.0153234096725898
0.017124224891903
0.0172039069553596
0.0154687874738648
0.015722163250553
0.0182098195912739
0.0199874479329825
0.0163433119698375
0.0161649445941957
0.0192466041477599
0.0195369871935805
0.0165618347262616
0.0165846463681248
0.0201894943410958
0.0214809445577626
0.0168785058154505
0.0167046808688067
0.022079182456991
0.0220454247646866
0.0219983838359314
0.0158653116374837
0.0162155386627322
0.0156387675289967
0.0154914652126507
0.0155888571272732
0.0157363898247494
0.0153878778051219
0.0153338958737312
0.015408786041632
0.0154713445781714
0.0153349829556865
0.015299490052255
0.015344626188166
0.0153776267767519
0.0152860656281794
0.0152738737750703
0.0152931870117722
0.0153062949515556
0.0152936335251312
0.0152827779555528
0.015303210643012
0.0153163241564468
0.0153161310153044
0.0153030428119465
0.0153241113551629
0.0153406152591918
0.0153270180108876
0.0153100994370829
0.0153209659035153
0.0153353208056294
0.0153480984371288
0.0153349075499678
0.0153342797465849
0.0153472129096707
0.0153470897841105
0.0153341416302276
0.0153481449295879
0.0153646069342627
0.0153650696097292
0.0153484046146888
0.0153492455575997
0.0153657323367422
0.0153656004214307
0.0153490851123042
0.0154322971142595
0.015465303809701
0.0154767784594747
0.015445884222531
0.0154554091856448
0.0154873314770744
0.0155001332815785
0.0154674856640794
0.0154689779035101
0.015501407951153
0.0157730807546126
0.0156947411697882
0.0157304092391789
0.0158111325070103
0.015890054990846
0.0158345971055434
0.0159024234535733
0.0159259991776129
0.0162612504641969
0.0162720766076967
0.0163074146432904
0.0162976276873543
0.0167776999522866
0.0166992295986309
0.0172291789360164
0.0173051695625112
0.0189889140757642
0.0185860983646557
0.0208878874837794
0.0447295571678947
0.0408464550012215
0.02034975943809
0.020470062038893
0.0429203753658906
0.0451587002403866
0.0204494727028885
0.0207303012982796
0.0430853646615871
0.043598948093161
0.0208248018404955
0.0208999600429071
0.0487532843065663
0.0441184338698611
0.0215256353735337
0.0223744435458513
0.043422757375297
0.0379547651689176
0.0217009784399634
0.0214915592684678
0.0375215563633563
0.0350350525882593
0.0208164187102391
0.0203669015560278
0.034272600275216
0.0366696574388313
0.0193361107515303
0.0180925028043878
0.0328623126813279
0.0303200065590491
0.0170735525715202
0.0168917824281656
0.0330943818089351
0.0301159424805182
0.0166728059812644
0.0166059994037678
0.027473949023751
0.0252846354133287
0.0165660422334496
0.0165720774928724
0.0242612060690356
0.0228044356982887
0.0165566997253129
0.0161625396152022
0.021693520849277
0.0205092000975379
0.0161125220426756
0.0160585388051999
0.0204442480811926
0.0159891661609675
0.0161025909270863
0.0161623035588895
0.0218312241525961
0.0227398426392602
0.0161453658267262
0.0160510577683289
0.0202822189226457
0.0153283218350881
0.0151293814553628
0.0151341589262919
0.0152865738966377
0.0159372426888582
0.0198892163949337
0.019113517644101
0.0156806589464648
0.0160321169205127
0.0194298146791854
0.0204127325624157
0.0164209206778251
0.0167964623034324
0.0211233542341576
0.0211288550627053
0.0166110387744119
0.016657019622334
0.0217148258685785
0.022465982790287
0.0170418233789252
0.01702819432343
0.0231017608144827
0.023413124717749
0.0169002886558641
0.0162607924265895
0.015907187596227
0.0227989577782719
0.0232479626110053
0.024361144418791
0.0239091228523985
0.0165016632736127
0.0169710354818808
0.0159409322408744
0.0157489760927679
0.0161476101802858
0.0164220482308856
0.0155841743379784
0.0155159706260121
0.0155450680591152
0.0156100574022978
0.0153992708785695
0.0153664906242618
0.015364903387533
0.0153967487230057
0.0153063039421067
0.0152931179641983
0.0153140636808543
0.0153292883635449
0.0153289782763609
0.0153139382330312
0.0153356495015287
0.0153539541483809
0.0153411589890068
0.0153245448687471
0.0153360910863144
0.0153500771328243
0.0153636024492941
0.0153509067604938
0.0153500508408005
0.0153627123689861
0.0153628121927445
0.0153501812493102
0.0153352571212467
0.0153483824913073
0.0153630753606431
0.0153505049946616
0.0153498202731685
0.0153624928184732
0.0153613538915314
0.0153490023697859
0.0153488500301618
0.0153612079589529
0.0153782660780507
0.0153626935454677
0.0153631754759235
0.0153790708744371
0.0153795299383244
0.0153638318464175
0.0153636900278188
0.0153793881378212
0.0153933991114684
0.0153775191579904
0.0154578905466664
0.0154882968968586
0.0155027257704684
0.0154707790531917
0.0154829971881056
0.0155157828224421
0.0155175151233638
0.0154850096986303
0.0157072735115504
0.0157838879097241
0.015834357785785
0.0157533409819434
0.015859029960835
0.0159155061574491
0.0159574274998789
0.0159367961278709
0.0159732499816727
0.0159868889970907
0.0164749084820625
0.0164737240061255
0.0164956252264746
0.0164917944027149
0.0168555842542697
0.0167869937876471
0.0173254186082797
0.017393299492178
0.0188435389753206
0.0185871727823976
0.0207421081233345
0.0475489732176348
0.0429399465579281
0.0203462434389542
0.0204066025852204
0.0462865177158598
0.0517931037716442
0.0207726210922015
0.0186487630627253
0.0188690278331125
0.0189493094893879
0.0187412037369383
0.0208645386947743
0.0569472097575356
0.0502255460775404
0.0205139053068334
0.0207095981102763
0.0542435727289956
0.0492981433298705
0.0204780775181218
0.0209185974573804
0.0479535721945599
0.0538376415691743
0.0213933323435173
0.02114812098136
0.0550123436068734
0.0503980825627487
0.0239003846081157
0.0251854572943389
0.0486017590459047
0.041565721255649
0.0235588028760259
0.0233878211173225
0.0412472557395186
0.0384706354179788
0.0221614737131549
0.0204593451811871
0.0370644020824875
0.0432312438645466
0.0211326177907442
0.0197071055410332
0.0404597002515072
0.0449672389333298
0.0189609499455813
0.0183261015902674
0.0404512136065105
0.0364617883885579
0.017375307901975
0.0169604569085208
0.0339370715082134
0.031030871609621
0.0167956373063219
0.0166958379732384
0.0284671070908731
0.0261631463402061
0.0166152677516132
0.0162392551081886
0.0244414936732783
0.0229170882210902
0.0161918548882905
0.0162057368356943
0.0230208887060262
0.0242606178130044
0.0164369376884524
0.0172901518345709
0.0257034051713298
0.0273729818750491
0.0175704780823962
0.0174060889916991
0.0281548273400935
0.0301935340184995
0.017890491399456
0.0173551719743531
0.0298205761639608
0.0259244131148852
0.0166490931671801
0.0170567205072982
0.0256934164643373
0.0238430584844784
0.0162326260875808
0.0159966733515365
0.022104620652107
0.0241999097158528
0.0165848008346411
0.0162750613833511
0.021627925531174
0.0221134446611598
0.0168606670273944
0.0161224339881691
0.0207024334676299
0.0200649355563297
0.0161554749169817
0.0163400307458322
0.0209188816345014
0.0218099198479529
0.0167727785805203
0.0168873204625099
0.022881342300886
0.0227294621654377
0.0167353829160557
0.0169331504255738
0.0233677082317818
0.0244068327052215
0.0173151613296123
0.0175524842878987
0.0248785716871289
0.0247789694733981
0.0174294197725179
0.0179607545762911
0.0263581460248178
0.0256525248369051
0.0252081693823067
0.0171484069874637
0.0176985861131675
0.0183639286735161
0.0179112191643622
0.0268415637207881
0.0271583414575498
0.0279759612245068
0.0184744811337871
0.0187924045735117
0.0300491572840798
0.0292400980882853
0.0293376854064087
0.0189584950416548
0.0191191196485922
0.0185224890463495
0.0180687899064868
0.0178093618820656
0.0183820518716765
0.016506019904401
0.0162466712030853
0.0162308988351031
0.0164953707153847
0.0156224497443834
0.0155515233194247
0.0155860908779427
0.0156550390929571
0.0156312397774288
0.0155710842752407
0.015389994376166
0.0154232859421565
0.0154165983182859
0.0153855568227933
0.0154062238100308
0.0154374236302
0.0153547693164517
0.0153361644629514
0.0153483552650584
0.0153640395363347
0.0153782627636865
0.0153640487343011
0.015362917329731
0.0153771229996449
0.0153764869129118
0.0153624403548522
0.015351097795461
0.0153638483981357
0.0153797495014716
0.0153674874260508
0.0153668530938742
0.0153790551461456
0.0153778572970406
0.0153657352172831
0.0153659532310878
0.0153780575377751
0.0153937534688618
0.0153813046802014
0.0153652965818768
0.015378188214039
0.0153771935396171
0.015364184150983
0.0153631651098017
0.0153757968326729
0.0153755966077269
0.0153629876927815
0.0153765156974012
0.015392167779726
0.0153933160744804
0.0153771932296953
0.0153776598677181
0.0153935992466009
0.0154078289996186
0.015391300399123
0.0153911438492076
0.0154075372781637
0.015499796351558
0.0154694356669723
0.015485507838248
0.0155179737273857
0.0155314899186513
0.0154980350731912
0.0155005399215666
0.0155336841359136
0.0157953684396639
0.0157192200441162
0.0157751013619973
0.0158573919979706
0.0159414296609427
0.0158833664933571
0.0159077064704502
0.0159673850025049
0.0160158579192039
0.0160024446506736
0.0160319027259181
0.0160450862762383
0.0165991496761278
0.0166114876051702
0.0166253355372194
0.0166029233312726
0.0169383809204614
0.016880649032297
0.0174407725056576
0.0175043470673045
0.0176363954766339
0.0175722024005766
0.01771566872225
0.0177803333532876
0.0190522396540939
0.0188568417587338
0.0209913169382485
0.0631549974971423
0.0549752274563068
0.0206562457768235
0.0209903011342149
0.0600384052512862
0.060930760640404
0.0219167075845005
0.0212951209737441
0.061245484104063
0.0577747450325584
0.0242808461124888
0.0265377552938585
0.0614184820215783
0.0555848416832582
0.0269088837108463
0.0271677767333148
0.0524225505056448
0.0452108254737157
0.0250444010901267
0.0247367443223103
0.0445254016756086
0.0484003696124705
0.0246801339369996
0.0233727202877913
0.0480353616549395
0.0520048425471909
0.0235263107427447
0.021586538979807
0.0495405787691046
0.0445351711186968
0.0202345193439405
0.0197568778813405
0.0499110595388478
0.0448206788644951
0.0180771384739811
0.0175994012424737
0.0408559233036138
0.0372231914055156
0.0172359376381399
0.0170290799283075
0.0347301015187897
0.031723141339342
0.0167983734517524
0.0166290252742472
0.0290529079099155
0.0266087841191192
0.0165280428404364
0.0170825277422944
0.0259853421923817
0.0268283753113414
0.0175975790012081
0.017687250904018
0.0284756021539295
0.0307514346982598
0.0177840270847248
0.0179648470685028
0.0334195221710954
0.0363914915724772
0.018144133429538
0.0178510777094344
0.0312342258706483
0.0338993018552044
0.0184584362214363
0.0179117396551308
0.0331161577196654
0.0285338869647113
0.0170641840507715
0.017875346538893
0.028859995957697
0.0313501500362925
0.0190621336290985
0.0185561778231605
0.0298944478363794
0.0268502653559069
0.0170024757437948
0.0174120844608896
0.0261317088164687
0.0285885211802525
0.0175198826359177
0.0173402626436006
0.0264790202146354
0.0247281209279538
0.017241946420811
0.0171673502992097
0.023108193093914
0.021910710729706
0.0164738683025829
0.0164037930909004
0.0215953582985456
0.0227001427810093
0.0170322912111442
0.0171195769396219
0.0249684874997499
0.0245747130118699
0.017006589525336
0.016999695329994
0.0244675434934108
0.0252846864909821
0.0174849424475557
0.0184823915854131
0.027395195273546
0.0270128701634949
0.0185065208964159
0.018412058667078
0.0276285449959029
0.0281529350582668
0.0188874673974492
0.0191575027715737
0.0306965883167681
0.0332313407011497
0.0192722638860423
0.0190907751535909
0.0323766524939206
0.0314834287884495
0.0321696404861605
0.019074610695661
0.0196331406513934
0.0183089594194883
0.0179636882834025
0.0163307879813384
0.0165831416955325
0.0165300912922022
0.016290177243793
0.016332475406928
0.0165380332731654
0.015687906856594
0.0156201535424265
0.015593693844705
0.0156483414086169
0.0154492433878495
0.0154142969030488
0.0154271639560673
0.015457588242041
0.0154723510142188
0.0154439009172278
0.015435442767664
0.0154612238242322
0.0154492456794459
0.0154245126596731
0.0153639204139797
0.015378323944192
0.0153954900965595
0.0153816926353687
0.0153813709067876
0.0153948806647952
0.0153936735392406
0.015380047006569
0.0153789983672826
0.0153924153611094
0.0154093865426208
0.0153956416698564
0.0153838128154217
0.0153964657907045
0.0153951729381664
0.0153826207588614
0.015381080383977
0.0153935115924903
0.0154096947060174
0.0153965581059779
0.0153965466083219
0.0154098500545012
0.0153936094064148
0.0153799615518723
0.0153783468787674
0.015392112837537
0.0153904279445259
0.0153771419640074
0.0153769401276951
0.0153901526504314
0.0154062157374523
0.0153901483733833
0.0153910019798212
0.0154077041160427
0.0154224012681901
0.0154051473613618
0.0154052767056803
0.0154223805645157
0.0154219869831232
0.0154050994467782
0.0154812160934131
0.0155115603036261
0.015533418188513
0.0155004332897189
0.0155134358284253
0.0155475849268851
0.0155502745440333
0.0155164653346183
0.0157315638146533
0.0158073882330692
0.015880408917583
0.015797004563511
0.0158188746712255
0.0159032605090073
0.0159934048673558
0.0159319550465526
0.0159561556824548
0.016019479358382
0.0160740854593839
0.0160605572295882
0.0160898874827575
0.0161035899516294
0.0166906325545134
0.0167236854889706
0.0167337916361581
0.0166899008458004
0.0170267984492441
0.0169797636724361
0.0170779523615769
0.0171198019261147
0.0172147877399537
0.0171818858715643
0.0178672121503071
0.0179294294949097
0.0191698863980531
0.018988718369417
0.0211406168850057
0.0702337735326061
0.0603822777624727
0.0208256651549788
0.0212120903545065
0.0668939228546536
0.0694786673986979
0.022358348107843
0.0214845414650849
0.0682254554115303
0.0663547042704027
0.0240692382565098
0.0262195630225566
0.0709007126261821
0.0620957775537963
0.0267262793935411
0.0250694089266246
0.0514050100868017
0.0468570137626605
0.0249574166437699
0.0246683866599846
0.0459046241654256
0.0492429261608319
0.0246582149275217
0.0248042043230781
0.0546106265608219
0.0616595338872463
0.0252064274325357
0.0234862504899383
0.0564323718799918
0.0630601966260809
0.024389432221969
0.0227931576576774
0.0608477890034343
0.0499456519799444
0.020951712463198
0.0209032147252802
0.0554284631031457
0.0492086737263993
0.0187187715173894
0.0181253782982912
0.0465914207161293
0.0420804861086599
0.017679233437922
0.0173182868396039
0.038166860589794
0.0397662071049064
0.0179359321138044
0.0176378723303965
0.035894477765109
0.0324606996383401
0.0175098223365299
0.0174476432524252
0.0295919660477855
0.0173859257354379
0.0173266242874045
0.0174186959762791
0.0166927780377004
0.0156552161337692
0.0156108005474709
0.0170075818033773
0.0182618313230571
0.0309209856220841
0.0365753894847832
0.0182095171493703
0.0179598064332996
0.033701631052298
0.0308717404798458
0.0177296220560308
0.017767766645687
0.0301762231807626
0.0278807489030381
0.0172901926958163
0.0178466172976299
0.0295055591372888
0.0273643286650571
0.0175191211536254
0.0172691113738504
0.0255876929547806
0.0242204836171397
0.0171073530664515
0.0165799745415727
0.0233006187129543
0.0245667258592649
0.0167619719797212
0.0170008838123373
0.0260903042119436
0.0279194172931086
0.0175149392818419
0.0173177728543605
0.0260020960654569
0.0244035318633782
0.0171740778805625
0.0171455022121375
0.016206848337563
0.0170363094101271
0.0246002927628504
0.0234935573758183
0.0171584789737211
0.017049246308935
0.017242653309283
0.016529821064956
0.0174307324103983
0.0272060175291327
0.0288760675172329
0.0180123412832525
0.0173410795639218
0.0175979907141913
0.0180287900718357
0.032736529573581
0.0298994010532295
0.0175942075718178
0.0182104271053911
0.0320382293180804
0.0340124519439837
0.0191409927389181
0.0197435412782597
0.0310396632147684
0.0312427219579026