/*--------------------------------*- C++ -*----------------------------------*\
| =========                 |                                                 |
| \\      /  F ield         | OpenFOAM: The Open Source CFD Toolbox           |
|  \\    /   O peration     | Version:  2312                                  |
|   \\  /    A nd           | Website:  www.openfoam.com                      |
|    \\/     M anipulation  |                                                 |
\*---------------------------------------------------------------------------*/
FoamFile
{
    version     2.0;
    format      ascii;
    arch        "LSB;label=32;scalar=64";
    class       volScalarField;
    location    "900";
    object      omega;
}
// * * * * * * * * * * * * * * * * * * * * * * * * * * * * * * * * * * * * * //

dimensions      [0 0 -1 0 0 0 0];

internalField   nonuniform List<scalar> 
209453
(
3.61243825854093
8.63303344420324
29.5166057077464
27.1834422277205
7.67650780208906
7.41526042470076
26.2353333462376
26.5413992631199
28.1535780698714
5.814897841097
5.56814647794601
2.92973841145822
2.73370970749686
2.89086449270595
3.05215913496205
6.10714556426259
28.1689799522217
29.1578428377832
6.08390679030279
6.23191433361149
31.0734066297516
29.9401324913932
6.4590748664145
3.24826236856316
3.05256458751474
3.30353532605085
3.49567090725126
7.25669595617788
31.9398929514239
33.2848066102779
6.90163684898213
8.88696457840496
38.3301693152621
37.02059945897
9.45030724938795
10.0941943415058
35.9642597825817
32.1666050672117
9.11626012680737
10.1073529641562
35.9765691610609
34.7375936531245
10.2585753017153
9.78398360861116
31.0071448518923
25.6635260793459
8.13701127208997
5.59072941239905
20.3732027420009
16.869683685904
3.55627304537469
2.38846334550798
14.4795562172223
14.0528728579239
14.3078949868885
1.08329534453537
1.09912214977996
1.02229723950595
1.00389423865439
1.00292116263325
1.00200535253389
1.00596461402451
1.01296091490839
1.02854363293627
1.01319156745521
2.48490614251252
17.5239302161148
15.8854144447498
2.40821237061196
1.15515147052839
1.81381861280622
16.0655071204881
14.4258420152054
13.9025837850789
15.3789557212832
1.15330785381447
1.15752396512356
3.88394075139004
18.7305165993328
20.1815818080437
3.92605418222531
1.33465648735264
1.38299013397693
1.39070962350732
1.33772504954205
3.7428684049936
4.01206786135255
4.02957330000863
3.75333005538201
2.63633868355085
2.66381175728831
1.39960205788564
1.3425898776331
1.11175210301711
1.14337855938764
1.41870574974286
1.28923899145672
1.40496683570407
1.50908187769928
1.54031147202304
1.50998713606412
1.65378835769315
1.68982007410341
2.10237563914922
1.88999907581413
3.87645791747626
4.34512392217365
5.64133767651355
5.47223774916963
11.4916701956122
48.3310804192506
46.1550912535145
11.5405837739356
11.8612143041698
44.4665388113465
39.9871273898537
10.7001721336859
11.49545236703
41.0194997651358
45.5604976687875
11.5822667139305
11.9820469706328
47.0155681369367
52.2137664698473
11.7293174309428
13.2961319712747
61.22195823979
77.0477416931174
20.7188763992276
16.2118703775085
58.8078968779973
50.976071189583
13.4454439177838
13.8749943557765
49.7383418824444
43.618966513407
11.7487279386287
10.7291689875854
39.6231963453297
37.1713863920324
10.4256614621295
8.22657005395746
31.4278430294931
30.0127272989335
8.002880712978
7.76044319632335
27.6901500663433
23.865495931762
6.73844538316826
7.31346549489802
24.563018342484
20.4120828689879
6.11818623680081
3.83067128365413
16.1769661611488
13.665091143546
2.46337918252334
1.03664397967195
1.00859503129316
13.8942970438125
13.2922695309853
12.1490815806347
12.0440114823588
1.00303866037161
1.00997307094887
1.00309024990178
1.00125272340667
1.00309913128257
1.00943746564135
1.01168672983095
1.52894361858828
1.47065821844713
2.18603903421361
13.1957278976196
12.7852564350199
1.78347946781734
1.00577535274858
1.00165573093272
11.855329517628
11.9247127581
13.2253405372818
13.9077558349595
1.00409722109195
1.00982770049807
1.00100868387201
1.00057617976215
1.00020863534653
1.00038895173114
1.00090345434688
1.00038115158552
1.00067115811307
1.00296143464319
1.00119279646169
1.00040533707244
1.00034018071625
1.00050631683665
1.0000952624171
1.00006901036495
1.00014906007587
1.00026943702221
1.00064262838946
1.00032509922792
1.0006552430507
1.00258197501799
1.07166641173025
1.03808244212666
1.00431239316915
1.00820114833852
1.0310075056368
1.02171073636219
1.037758044048
1.0497653448384
1.07339248244637
1.06264333143113
1.1726804026917
1.21248431751414
1.25379532598683
1.21481968763261
1.26646878490423
1.30685134852726
1.39473285977723
1.3413202387474
1.44548424905601
1.50826681727626
2.54400936403151
2.29968348351576
2.55517033019892
2.71707322856391
5.71456747214532
5.55338699815527
5.54824758411501
5.70234886785318
11.2129187924306
12.7866869860735
14.4811380040796
11.8631094530797
11.4745119600799
13.7426137342719
20.4605175121018
88.6864989327206
66.3605841003399
16.2611763307662
13.5478293865479
56.9346930389952
59.4258881389319
14.0896584640403
18.8815338023128
61.7973279837315
54.0931621809878
16.5190911210531
12.1389496309164
40.7905944335219
35.3100565860766
9.43585660713906
8.54374234044284
32.8562809371784
30.8748504956616
7.96047941989727
7.93473507299966
30.1850608906356
29.6301645480945
7.96662676354327
7.96779861766025
28.1143403408971
32.9196620848426
8.67869582220811
8.16524594930917
28.1826325185001
28.1863749408405
7.37812568126008
5.40115346933525
21.1722721849572
16.2155242625456
3.59864388824076
2.60660365982458
15.142863601173
15.9003743833093
3.60418252880668
2.20300035224068
13.4830812172492
13.8094189140611
2.07579610597351
1.01103142883059
1.00366853850716
14.9601037668391
13.95598695765
12.8202292412362
13.6187197544561
1.00311211579359
1.00857616637217
1.00047626834659
1.00020503049838
1.00020567327004
1.00046255592003
1.00048904996263
1.00019258356907
1.00018386324904
1.00055891454159
1.00060380724502
1.00009570304185
1.00001987043425
1.00001684906781
1.0003150441975
1.00037732579184
1.00171177499469
1.00132226897371
1.00691165880435
1.01135151479401
1.03463302879214
1.02453084428983
1.03503405240998
1.04513790895643
1.06201370094815
1.05508176823352
1.05144680861305
1.0580795215893
1.08473126638695
1.07738388414999
1.09241043691094
1.10485578301374
1.14365179468695
1.1290207036624
1.17676004052578
1.19446356428765
1.25900659420341
1.23399945596968
1.26799980624553
1.29833064125894
1.5500075760651
1.48352766629546
1.50688478166633
1.57444418383305
2.59405260559988
2.36015749029189
2.43148137510311
2.65223587858695
2.85879057291097
2.73102329428331
5.65561100514713
5.81973884156855
5.80259614487201
5.62880007304327
6.28381324616263
6.28708451009003
11.7587072279988
14.205857679015
21.1361563978284
91.9574858984943
69.5492935761667
17.1300556494667
19.8694185305071
26.6011392763313
104.230105152546
77.2121810160784
66.8695750320362
15.6840852749446
17.72317959817
76.812268119227
88.3923999298285
123.362248108951
29.6876905833848
21.2128504891362
17.0662582260571
17.0916926717732
17.1656986450449
17.1003387191333
21.6284145233893
29.1728673841619
130.132077592439
93.99886476116
88.995545457207
21.4468182536705
21.05805489954
91.253002427628
90.7875299208471
21.2098958214743
21.0825130976612
83.5089327102279
19.9893397894757
10.9708769018503
18.6343084251231
69.3314193088783
52.0184387505824
16.287495059749
14.6940522892214
44.7541784209722
35.4430137029078
10.1422727541322
8.23612412939971
32.0903904806232
34.7852011613906
8.50556813250054
8.42549337266329
33.9523806807083
33.892600566934
8.48371695056051
8.61988167668256
34.3429998258021
43.780528702751
9.61467415802348
9.96229049152085
40.1162808327609
34.0043055209127
9.07662865563823
6.662091110938
29.7448242999056
25.3125372596957
5.90809404452879
5.48431446640848
24.8844334274807
18.5318699598031
3.65195832624173
4.79443744498246
19.057624864079
17.7774284751427
3.80029168876606
3.29549159040218
15.7710710466221
13.4752313924785
1.81011373731074
1.45467344095482
12.5243385820413
12.4917349427936
1.4225489069673
1.00767847195936
12.8051994070357
13.6019592019698
1.0027523350051
1.00038027067248
1.00083720223072
1.00058833583643
1.00021097103468
1.00018453286859
1.00065258218543
1.00078881322717
1.00015285624714
1.0000936376495
1.00236142253256
1.00065898342354
1.00040003915318
0.999971157707373
0.999958869705953
1.0015973726121
1.00148101326738
1.00644685604533
1.01643700148956
1.03616767466789
1.01670426454892
1.00218294730135
1.00437225770362
1.09087650994013
1.05112509470159
1.11514617976449
1.16415324650394
1.19404069459984
1.14053899315526
1.1762927326854
1.2305883759888
1.07661799667615
1.06419423686523
1.09439596336692
1.10746010502326
1.09022811537934
1.0818312423479
1.11783021910385
1.12648564900073
1.12012114152347
1.11156778781716
1.15771055461349
1.16799907578628
1.23173218081764
1.21388562695332
1.24960049705805
1.27450119676722
1.30260716810917
1.2708309304826
1.31542397169822
1.35555826283593
1.34765719380769
1.30826153804921
1.52711930970038
1.59804115468864
1.62201740313013
1.55480286728384
1.60321627353227
1.67987137480578
2.69744642686261
2.48927302437447
2.98935172935138
3.01770118089937
5.99483875432558
5.82658660239324
6.55671108301736
6.46772056103541
8.58786020082412
8.96583477007948
16.2928323759924
13.5594653355805
8.15611997903344
6.72217854063533
4.57555948479354
2.67429095050478
2.30361405932357
2.31935224384527
2.35429994743646
2.33016328206895
2.28397631300844
2.92713650827308
2.89213061496574
4.68662528721922
6.73396313407285
27.2564525472849
23.2921214935626
5.82657270693006
4.52318166239026
20.7466509394426
19.2692435701109
4.1668735455325
2.23709767055583
15.2193645831465
14.3935397782058
2.06101651852611
2.00698954310548
14.3146837774758
13.4181592306945
1.77345773330276
3.19510776211414
15.6313189127392
13.7467389120441
2.01510154821863
1.01090790126363
1.00331589195487
14.9114810761871
13.9176107531713
13.1720230200332
1.01404662582303
1.00857429314195
13.8527955655963
11.8119535249755
11.6874947441796
1.01081227972957
1.0069389243647
1.00032275353957
1.00083135288958
1.0008016980671
1.00030142873086
1.00047697700019
1.00135148945621
1.00233782894248
1.29710853189147
1.34587920893608
2.17884423823802
13.4147719082741
12.1989926024136
1.62450721666935
1.93144925307892
12.3458475646002
11.8566928357123
12.0248778042082
1.00250115849496
1.00901903542303
1.0023373187172
1.00054526093085
1.00177040653271
1.00909306541115
1.0190998383319
1.00180787604567
1.09893591263947
14.2885422186575
13.9182948109845
1.10836867582446
2.52324289676402
14.3626945395627
14.382570099245
16.1561023724492
1.65861225033441
2.3404356853306
1.16160647837402
1.15075718453126
1.18521608657914
1.16842861650352
13.8977378633111
15.3720833183163
15.4957258852638
13.698314595117
4.46608993891229
3.90306422223231
19.1208696584819
17.7117513435214
16.7646025003851
3.5454382991887
5.48876467883865
19.9951108176871
22.9946882748911
26.1277032635135
6.04555525734297
5.71514674682233
4.21559656995444
3.60828019186439
1.36612683145976
1.47480372298059
1.48603247824006
1.37389834650517
2.49396431040535
2.72824249925962
4.22166505300395
3.61822199376782
5.69175849950756
5.70821109709732
25.5114475207307
29.5615060698441
28.019014662376
5.72406040299395
5.83282277610726
26.4049446265368
26.0434537787842
7.51004098186084
7.73310408606862
26.9077960056979
27.8523238276977
28.7694779305649
5.93013283129147
6.2839850885767
3.05084133483231
2.69620395913426
1.41527782558148
1.53795786412663
1.57042237054901
1.49578954314199
1.21706392892301
1.27048974714718
1.31972977697873
1.26760099825908
1.13321721768076
1.14533417340291
1.20090992861491
1.18847524933729
1.16849479532753
1.18136908400717
1.25393299354394
1.2329225878534
1.27773734356752
1.30604704749092
1.27959424833287
1.25367425111853
1.30675259764192
1.34216078152487
1.33072325231027
1.29645905248365
1.34975421810909
1.39876891852295
1.41875556791756
1.36525020701254
1.35605353004743
1.40790628038301
1.65322060937289
1.57425429752296
1.5954872900342
1.67291264045419
1.70753428216876
1.63157716018253
1.66220502944935
1.73063633927462
1.73291974164706
1.66139284490562
2.49087843629077
2.67527213052217
2.75157416786781
2.56602888909345
2.99830334455041
3.05198997301156
3.07284912925118
3.10517422891916
3.44799265660004
3.07937308948007
3.03579292388254
3.00723583315911
2.98347679893066
3.02904881347516
2.71138541526408
2.51493388040547
2.48375721678828
2.67905793296779
1.69973019516691
1.624951472093
1.62867255394062
1.70088452388871
1.73098033029654
1.78550884446244
1.83409226442846
1.8477678083158
1.85343745559083
1.88440417425447
1.88070652410559
1.88724207321421
1.88850143016178
1.93357975632115
1.92427870383126
2.01106605602158
2.20617532644656
2.21580064895065
2.51538524188427
3.13966072798448
3.38806081356621
1.80434044553579
1.84826346163385
3.86803868551676
19.2770095719662
17.9431130477687
3.3595022749267
2.7178681276465
16.3471777489543
16.8166550623375
3.21572608072718
2.28049476691464
15.2089729785181
19.0872998661618
4.18725151011782
3.6358140539919
17.5225535841499
17.8778500487549
3.98692573482196
2.90018202676502
15.8586444719592
16.8111080832767
3.91391433077579
2.81904175572224
14.2387123207773
15.3744176369195
3.36647177853978
4.43057007082976
17.873333416644
23.1679784123958
7.02888330154734
6.12976054266728
23.0535873614703
25.4917421167373
8.16547054864313
8.72412105774247
26.3664364061878
31.9312876161724
9.64243157227106
8.6247382899862
29.246630771719
29.6530210502483
30.721315278578
6.0267303681471
6.56736719779326
3.1853609706511
2.83025255811208
3.04433340394337
3.39915389234429
1.66891906549307
1.60617393872397
1.79673293220716
1.87507943048286
1.39688864154593
1.34249842989993
1.44607326900345
1.49859471559321
1.27783245139964
1.26039820758718
1.31262641321234
1.33742153703248
1.30603671319034
1.27777319610851
1.33963984195102
1.37802818577261
1.37309696622099
1.33468353454908
1.39810742721694
1.45368306959481
1.41647133295989
1.36376210066733
1.38832379670537
1.44285680479523
1.48256734519115
1.42733106209329
1.41793308430364
1.46427054462106
1.46843037544683
1.42027541332451
1.43726160290313
1.4850567211815
1.47754049105509
1.42333116032843
1.41644508056694
1.46349515651146
1.46527524145636
1.41513593008114
1.62756564178818
1.69702858987061
1.73176219208136
1.66446116207902
1.67467382314483
1.74538384735601
1.77526146972765
1.70229450997344
1.70244664130426
1.77072982216923
2.69064655603966
2.51016564028254
2.62244719138354
2.79947430412792
3.1081759040934
3.04286770951506
3.34246543719075
3.23811228760837
4.59954996748298
4.95269196570183
5.00905517976672
4.66544831710087
6.55106505457947
6.64454138244814
9.15214921536169
8.72618044491684
15.6508896227221
15.6289978435807
26.2859671901633
114.887412892084
88.250695597105
21.08618831386
21.0625004854698
85.6921129994623
84.7725541715541
20.5263245211816
20.8368022844806
93.7406970534459
94.9318828457961
20.8967432234581
21.0132084846362
98.8241274098291
81.9947283358391
21.5141178127262
23.3272015418058
75.4302671333716
68.3784782519747
20.7592918169081
20.0013556425886
65.6341205091015
60.9829774313099
18.3005102699158
16.8313330419886
55.1126238666982
49.3562543167641
14.0733410124132
11.4621315863551
41.3976027176532
36.8762694033028
9.46035102578404
9.79186000873315
45.5393167499787
43.7662784186824
9.44611328954576
9.42673418024513
42.6935128292148
42.9400735785697
9.47876830692544
9.6219024291442
42.3299131589861
43.750859805809
9.73724564046742
6.95319930850278
37.8526253167632
33.4001826867712
6.88053914857409
6.72199778721904
33.4566183674793
6.05884770272327
6.74109450683333
6.93136504868051
33.362245048744
27.4248894407656
6.41146149714193
6.33450506686082
23.4703705672723
2.40395074995862
1.15085629601879
1.12290848952342
1.92923999139343
5.41136604953052
20.9369411029317
19.6541834082552
4.06044406177307
5.85324126339408
21.5027835693426
29.2664222462992
7.77933552252444
9.11585368923085
30.0886174991538
27.7962016126732
8.07705084429558
7.87797491144342
29.0674319755495
34.4507779926501
9.92491818161681
10.0238139271058
35.6445399918474
32.1990762243578
9.23864659335067
6.64784442980822
6.06267487096583
31.6714059073642
30.6281745613285
34.2025056744194
35.4272719142343
8.06811470801445
8.93156895456976
4.00989038923431
3.56734315260332
5.15508257430339
5.79215270043987
2.23964024387808
2.13963830724173
2.21920962146653
2.3213721889403
1.56227831102655
1.50463654206577
1.5071012972671
1.56259147769971
1.3358132597556
1.31208330906367
1.382974294045
1.41892705920093
1.41520005332461
1.37943533574584
1.45830625414915
1.51382204716996
1.46705932271968
1.40972399249674
1.44622057223789
1.50131116001216
1.54928167994827
1.49689912947238
1.48052504089309
1.53163901299311
1.5420926110959
1.49057057453635
1.44545170359692
1.49576985333282
1.54725752838587
1.49669729222739
1.47212042998591
1.52746556395654
1.5077077264032
1.46084734490006
1.46338062792728
1.51049777998862
1.5277204226156
1.48271633002454
1.46526621308028
1.51825484720936
1.50418260680429
1.4552025142179
1.45494137117395
1.50247081584429
1.53807807254804
1.49034310136101
1.69681029544837
1.76779712064646
1.7833723447702
1.71375538384786
1.73916841046073
1.81929976918716
1.80846292662162
1.74012031083066
2.52985983820764
2.71122981960027
2.85658222817427
2.67774816076041
3.10044559613453
3.16940537509694
3.29923549199214
3.43544890711601
3.53834720415275
3.36944952907306
5.29917487008898
5.61141185960577
5.60879101467629
5.28631322334358
6.68344523896116
6.76796588992327
9.298689938393
8.8426298757638
14.7844861508615
15.287817193166
25.1165072433931
105.889190990176
82.6130973822066
20.8082569178416
20.8074126005407
83.4290747924842
107.622482945125
24.8968804254831
15.2551997420993
14.6414646409085
14.7556328697809
15.3890282742243
25.0354543552637
111.631473678702
86.7122011304287
21.0327277834805
20.826457846811
92.8122202014331
87.6643932581211
20.4028805836152
21.2550759413714
99.2335940208895
106.49837005434
22.4161257600981
21.5762954672566
106.98349508972
99.5874738776453
27.9157717566486
31.5423252228898
101.18549429336
88.7902787712006
26.8913886660558
26.2296886405204
86.5091381954187
77.5182846165898
22.6256495514829
17.056532863077
63.9021552596711
77.3739230445983
19.1234722478239
15.0157545790467
53.5940486533871
55.2463817745046
13.5229688793041
12.3268708081577
51.4916407877904
47.948658123363
10.6344036008538
9.89513319463494
46.1277505752219
43.9804964980981
9.6871133506088
9.62519689636568
42.424189236229
41.6840855204901
9.58347778502265
6.92704818385261
36.0999184828277
36.5500879112867
6.9028275743678
6.78432879773491
32.6800758900965
33.1559053778224
7.36905532377164
9.26006041426188
31.6596805253907
36.7884736628554
9.90245152647208
8.88190199936495
36.7277622266592
37.7339802988328
10.0569903192621
7.92174607431505
28.8102977407494
21.0714324584565
4.92354936907126
5.70595756519241
21.5432767319088
19.348527587897
3.98794644808542
3.51021835508225
18.4824605105459
25.9559497965409
6.311767867872
5.73680321658148
21.890223357311
27.8881228328362
8.48263870191103
5.79238662574184
26.6158038191654
25.7941042216719
6.31550803121631
7.01512653013166
30.0669178575985
34.8952576139895
9.25713027303476
9.27061792413149
34.9077208149568
30.4331333983747
8.297816960238
8.70149150002868
31.7653465342693
37.730544946126
10.7848977937772
11.7795122056154
39.9678537596984
37.9864911557548
10.9488370304204
12.8380623824261
48.6180076412437
42.8809405038359
44.6062838573717
10.5316732447362
11.612057911767
14.3901464765418
14.0411748353646
58.5817260304086
53.6993663545441
59.2445275798508
15.0330367471467
16.2760303669845
66.6243164417845
64.4735214037863
77.3616629047274
19.4728005454358
17.7028259608382
14.9828698102074
14.5320474049715
13.288546043413
14.400134943307
6.01092696827141
5.4214318596496
5.40233812323446
6.01729555274217
2.36298805453605
2.24162491252369
2.36675379374111
2.50035494622128
2.41803593986481
2.30833716916829
1.58900868426384
1.66046886271258
1.64646640704347
1.58130935006009
1.67457257380874
1.75370802485417
1.52855814249883
1.47343982473432
1.52554670241389
1.57576045136786
1.64806999586404
1.600784608823
1.57583431086282
1.62868310160288
1.6317582627619
1.57969595921903
1.52342687322489
1.57666139292835
1.65776320192039
1.60122882879797
1.55980698460837
1.61511050074833
1.58671780611176
1.53564675041939
1.54553841891199
1.59839188537917
1.65644787003786
1.59802091228239
1.54354721573172
1.59716137144855
1.57017727799951
1.51221976177832
1.49844696260065
1.54854203133207
1.54980043567317
1.50156931466563
1.52394602028175
1.56915264407345
1.55765664819139
1.50362739846378
1.49055427392507
1.54369664978991
1.58096635491356
1.52330923817999
1.52322062965171
1.57290049867193
1.80393343468475
1.72714951000688
1.75089000255952
1.8249791847419
1.86348447577449
1.77625989565165
1.77818021915908
1.85272526540526
2.73639948336555
2.55297695586463
2.73571521353581
2.91739939162388
3.24294344820255
3.16301387098575
3.22898245745131
3.31493594771416
3.42921663847577
3.6161400721628
3.69711465808976
3.50092047541599
5.64244646964851
5.98480222040442
5.95247700430726
5.58432401309924
6.87170431333885
6.93429706639556
9.54114902217628
9.07660800454697
9.42571658122669
9.86400048378127
10.250085601482
9.84820427237654
14.9788081524482
15.6319786854021
25.3402378167691
117.191786983062
91.1655416475989
21.4251074274899
21.3881766848713
98.8343694943303
114.874832384434
23.5893260058558
21.8630576700048
115.553138171581
115.68329135367
28.8647927988704
36.5193399509717
149.026762490647
151.243132605896
38.0496138495422
39.0536109265979
135.682874011122
117.74843280696
32.9644304980898
31.827075287825
115.943417742337
121.67895399052
31.5615215648707
26.854796415422
109.615430240646
108.350506018147
27.3360700989643
20.5475283096769
79.2408733937683
56.1038592686948
16.5798266626346
15.1367668869609
58.201921909801
53.6707348999656
12.3263732549486
11.1720852318184
51.0234524793814
48.5018066245
10.3913202694743
8.8049823787146
42.6668449189255
40.966979568344
8.19154599459661
7.78002856981808
39.908111558052
37.927728577394
7.59328352463292
9.18397439085426
38.009866494955
44.3601759764153
10.651764798647
10.7392761655798
46.8550351525918
46.8315662236718
10.7435287004218
11.1320201097319
48.1454001470549
49.9376298717551
11.4887289804599
9.65689541280857
38.2816833839437
39.8711390421886
11.159067734476
9.39525125211752
30.6146928201916
23.3438282736967
6.06262933385613
7.4635157656142
25.798885814986
33.8689391854878
11.0537683672316
10.1194804452109
31.5708520815527
27.4757846551184
7.19959747589052
9.34599977434997
35.3436292629719
44.8087579688228
10.3952277500735
10.0166481493549
44.2326128797254
44.3878769620205
10.0998677667338
10.1138512883725
40.1739436475693
35.5525619593262
7.37314074236299
7.11834933444873
33.4616783177651
40.4754609462705
10.334399054843
10.1850606647544
44.6243820502122
35.7161725594772
9.30383785532767
8.8557421883687
32.3136244659019
35.7554734939321
10.3501849144793
14.8262297786252
46.5982834766407
51.2047226053568
15.3869091097852
14.8731455994321
60.185541061236
67.9624798094976
17.3407837371439
18.3548572166519
75.3129401779304
79.1005298192214
18.5804464629018
17.319477546435
71.7618127577833
74.7378092875645
91.1025002948904
19.7602794323839
19.9278920230072
14.0200810206024
13.7789905206281
5.71181141353119
6.32262075411574
6.15034607464886
5.58035163017953
5.76797339846426
6.25441368228395
2.66701059100548
2.52105077975035
2.41497001579367
2.52505652043684
1.78710665687582
1.69900440943202
1.76419411016621
1.84445030301689
1.93591082468345
1.86304178049652
1.84320476013044
1.91128319799827
1.87342648448896
1.81519151125568
1.63120958448435
1.67737072881788
1.81237447908777
1.7575446191309
1.71249569286399
1.75884302280231
1.73609333612948
1.6783773028172
1.66727153324078
1.72543554534848
1.85376284610901
1.78648273612737
1.69493499886648
1.75930501385326
1.69673498652273
1.63715210380761
1.59582962440686
1.65041002088497
1.72912570229608
1.67277865968431
1.64939962575427
1.72131800864853
1.64672222139104
1.58795032115667
1.5489519010297
1.61205399958518
1.58539935893062
1.53162287708686
1.53421895495715
1.58568162230493
1.60843213371825
1.56072419465992
1.53859502587065
1.59559694041198
1.63184418894729
1.5723760048964
1.55478966823177
1.61553958423732
1.60675262930702
1.55474480248448
1.757285272707
1.83872662291547
1.86900466365853
1.78901628918445
1.81469665230099
1.90829751567013
1.89912129003088
1.81823201298196
2.5798608497223
2.76423622807589
2.98016404197099
2.79716031505782
2.85964523659646
3.04395624882785
3.3966995174388
3.29884712975748
3.37089459075463
3.47564584376916
3.56802254602503
3.77928186191629
3.8668050876522
3.64466979685114
5.87480646003238
6.25556073276225
6.21484906150774
5.80710131679304
7.11178350218874
7.12617572327049
7.31329017725326
7.39304590851645
7.69672978475745
7.52854679778888
10.6835587509753
10.3230355811957
15.2818185474278
15.9609732673217
25.7807281033933
123.46744146087
96.0341910631731
21.960647638467
21.8752884311853
105.342917310594
123.741147471385
24.4926347070496
22.2520446240886
122.700893424812
121.792636669324
28.2103169847606
35.2349025403132
154.016299904622
147.708154803565
37.2557888636806
32.6481938712496
118.968391299379
126.533532110567
32.503374288368
31.4919927959737
126.690700536089
118.311208206825
31.3078473506432
31.6391826568172
119.66680893671
126.734636222191
32.6948771284245
27.0605621583725
112.578169858255
124.686863131679
29.6775876123523
24.4737503185839
91.4454839500262
59.3565376265796
18.9453959232738
17.5191137300501
61.4692513987675
56.4816443319626
14.0055096946239
12.2218141278527
49.6559409961024
47.0450549237157
10.7683004729022
9.64092357302118
44.7170011083991
52.5037115802548
10.9515679351042
10.3215244176676
50.1574245559308
48.3159008490381
10.0995672964808
10.0768429259408
47.4433804261163
9.65939809110949
9.01829394371165
9.09801091479327
5.84635504063824
2.50938324518977
2.38322823602678
6.83765032063499
10.8869748536375
41.3648366262068
50.8194482129136
11.8635358418076
11.3741331891622
48.5668583972076
46.2338434349264
10.7780681978536
11.1577462084392
46.0244056849789
38.7609330217909
9.3283247047549
12.1760422841341
44.3222024150258
42.7779028562137
11.1110975641456
10.4748145566105
43.0408194624375
44.1920987680177
10.2544372972025
7.49803566417914
39.0511329614585
37.8069383400343
7.84941078530769
8.4551280489101
37.6627409919014
44.6014360307064
10.4956304237747
10.0795611306459
44.2608113662534
44.7387465203608
9.87708092686219
9.74498508452721
4.62993845343712
8.3644114098154
34.8439930061875
34.353152151576
9.44367761264018
8.72193562429867
9.14907377578417
5.52393592873492
9.00616994968533
36.0208313034922
37.5819770662842
10.5278344448528
9.12788384743398
9.89874368629594
11.8683639097242
48.1529443363663
40.5272608124931
10.3024389485475
13.4574843910218
46.9244469786797
51.9974248773801
16.2514244991711
17.2866355225596
46.7490823912121
47.1040045514313
18.5112629041763
19.1651653057025
46.7226593964355
46.7857270561168
19.793835592433
21.9150434677904
49.1039936605832
53.1145795684179
21.8977091163217
23.6705699348873
61.9257096698598
76.5088732345671
25.7078323017862
28.9798566102081
97.125844635096
102.137138636315
29.9313973621165
28.9130998480152
93.3475370987096
104.502104196406
121.81664162238
37.5718161542719
34.0732472177935
21.3383979678791
21.3905247987934
15.8725951696353
14.7328548981516
10.0150509277283
9.655772762606
8.80023800152178
9.4318574572024
7.92652108762232
7.36219420851254
5.62676718833493
6.01441811504205
4.4187155409557
4.23592929748923
4.22688946362418
4.39599817027296
4.32695645658739
4.15126049176547
3.99906219519655
4.18259120985038
4.11938203544385
3.90551357045398
4.09555707537633
4.3180903792412
4.50445338507139
4.25030188713814
4.20204412964724
4.44799913727957
4.38421895794571
4.1216977627437
3.9503622869424
4.18300632755392
3.83306791299984
3.62865951299265
3.24056853294159
3.41431853614638
2.90027234105853
2.75917724998961
2.43921279632401
2.55165144772398
2.25401988800593
2.16900590861211
2.0160274707575
2.11992674896355
1.91905380581583
1.83655505061417
1.7301129038126
1.81665042952912
1.73166144342672
1.6675058737746
1.63205284602966
1.69984721662587
1.7065852293285
1.6470005847849
1.62712909148257
1.69447337981083
1.67611709311373
1.60677462489424
1.61125447296687
1.66983014854588
1.89851130605065
1.81224724326777
1.8626131767415
1.95569485922529
1.99800306683101
1.8929686788287
1.90273639721768
1.9953457413232
2.81830207374516
2.6341234642187
2.92259356352525
3.10722193462986
3.16949520764213
2.98426933501227
3.44633614041409
3.56370948723333
3.64760018439826
3.52235471002915
3.95664999776042
3.71997596984722
3.8000895482652
4.05148210336153
6.49007309903064
6.0889866366137
6.01487239400216
6.44246889958933
6.69438410579661
6.29219498237998
6.20344068373905
6.64124006139127
6.87907132838017
6.46947807590797
6.35882717895257
6.82088021315606
7.7618801408159
7.99600420673105
10.8297071781065
11.1224282577696
16.3798127343517
15.6761345939357
26.0757213533636
28.8754430930887
136.347775521809
107.955005445736
114.264298561585
23.4236014230532
25.035621667705
133.26521068779
130.471236010534
22.724027663163
27.9111780989232
129.235934031191
162.635118511339
34.9237270267542
36.9166504214405
152.958960730144
121.474326079319
33.1250060181427
33.8764461627055
129.227778764306
142.827471841981
36.7542688510727
37.2084858365301
139.368022688903
163.219034953489
47.5146319294018
32.6610972978252
147.44230094343
147.057311519712
35.7212236386196
36.1433245977546
114.516673745207
97.5644434311216
27.2212532134074
25.9665244688943
82.1193486111739
60.1893893442674
22.5456947760946
20.2277576670186
64.2843719114546
59.4646728765599
16.2319141746314
13.9667430516116
52.6274146625408
61.922826411115
15.1487088629193
13.3527490554985
58.353263949971
55.2460829382378
11.9447445683902
12.1963686526943
52.0988917228812
54.6247139194651
12.9209622318313
11.1937091125567
41.155159223165
43.7587655981094
13.0538228293674
12.7952618549133