/*--------------------------------*- C++ -*----------------------------------*\
| =========                 |                                                 |
| \\      /  F ield         | OpenFOAM: The Open Source CFD Toolbox           |
|  \\    /   O peration     | Version:  2312                                  |
|   \\  /    A nd           | Website:  www.openfoam.com                      |
|    \\/     M anipulation  |                                                 |
\*---------------------------------------------------------------------------*/
FoamFile
{
    version     2.0;
    format      ascii;
    arch        "LSB;label=32;scalar=64";
    class       volScalarField;
    location    "900";
    object      p;
}
// * * * * * * * * * * * * * * * * * * * * * * * * * * * * * * * * * * * * * //

dimensions      [0 2 -2 0 0 0 0];

internalField   nonuniform List<scalar> 
209453
(
83645.4237765959
83660.5717879052
83682.2592103819
83659.4126263839
83644.9462497038
83633.4793846571
83623.5388624716
83611.2791031728
83616.1320642474
83624.2003497074
83623.6558591678
83620.9494684271
83620.9547390538
83631.6233974435
83631.1496120986
83639.7927431184
83643.6371971247
83641.5553881391
83641.0739541331
83653.8998371253
83662.2732950298
83668.2907570108
83653.8165815941
83644.3400266081
83644.5810290023
83654.5677811927
83654.1429635344
83657.540925039
83664.1396416442
83662.5082605138
83657.7237592103
83661.0994601024
83662.3812637404
83661.4120054481
83660.2020755933
83658.5701622054
83664.2351740124
83671.1895594603
83658.7380295918
83658.0613483665
83671.7215005023
83658.8536773396
83653.6442979953
83658.9928422089
83678.2835423042
83620.069217666
83627.6901212486
83602.8092033787
83574.924796778
83582.4290929013
83598.8207598218
83595.6350935516
83571.3208711361
83660.9360314736
83669.3010345567
83629.0931298511
83619.2225422343
83613.2216545632
83613.4581115516
83613.9694415582
83613.6279662399
83612.6204330152
83614.0032164152
83608.6264153429
83608.5412590738
83602.6182016128
83601.0449306877
83583.3285092813
83598.7479556911
83616.1732903722
83612.1864296736
83630.9203616552
83667.8591254425
83662.4612043376
83642.31815421
83621.4148476618
83625.2793740437
83601.6091964691
83590.3260612198
83597.5204968265
83604.0101957013
83608.4145013781
83607.3596379473
83608.1115496051
83610.1208231465
83610.8647737697
83609.4030453694
83611.953786445
83612.529012774
83614.9489787248
83615.0181062169
83611.8089621827
83612.303964303
83615.1443893905
83615.4268108984
83624.6755910301
83623.6515877048
83633.656417939
83633.2357086075
83644.1821024342
83645.2002303268
83655.9468050871
83655.0573050549
83667.103098869
83667.409473439
83663.7366512488
83663.5674911427
83675.8746700525
83676.0297898974
83669.9378287945
83669.2878742596
83667.3532851791
83669.7357802652
83670.3074849419
83667.8656622417
83656.6666486787
83666.3598817037
83667.5764118527
83671.6167548601
83689.1872925413
83674.6678911639
83674.4911998848
83683.3035348486
83681.4940343148
83677.6181831649
83677.8661984843
83679.3465394923
83681.7945830481
83681.5447307629
83679.7356567609
83679.5576648153
83678.0189645428
83678.0542577337
83675.5439850113
83673.7312377892
83671.528400141
83671.086347717
83659.642520787
83659.9170369543
83653.0259344521
83651.8637191352
83646.5568950712
83647.5283559461
83645.8269928763
83645.0124139841
83647.4646573679
83654.8646708639
83656.7039545934
83635.1310601398
83631.5618395499
83641.6301662193
83607.0331623927
83611.0117589585
83603.656117889
83600.8436393529
83589.6774816379
83598.8086429971
83609.552452802
83618.0923983945
83638.214592239
83612.5304401801
83604.9627073887
83622.9502851075
83609.8169717195
83606.1944678077
83607.6612830732
83608.812679211
83612.1319543512
83610.0909815993
83603.9890935264
83601.9804554913
83604.2650716143
83603.726514957
83603.8418000288
83602.2090507193
83603.344774677
83603.3730544267
83605.8059720289
83614.5278155906
83600.279372921
83598.4932713666
83608.8489260164
83603.0275732101
83600.692415026
83601.1566802214
83601.8108246804
83603.5423893749
83603.2354992881
83605.8505321378
83605.9828990352
83608.2154625994
83608.2676626385
83608.8881319535
83608.8713935129
83609.3307468725
83609.2268722963
83606.2422976754
83606.4557444526
83606.6194302551
83606.4143667555
83606.7617669416
83606.955613896
83607.6697052658
83607.5538880178
83608.6562214375
83608.947587313
83609.0705407403
83608.8621493527
83614.7515677611
83614.6378914251
83624.0929592075
83624.8314936089
83631.8900634149
83632.1758761707
83632.9637496472
83632.5994922287
83642.6209000857
83643.2223539052
83655.1969273905
83654.5584983819
83669.109999021
83669.3593974717
83686.9420349214
83686.6003160857
83680.7303219329
83681.4282034261
83692.6123621013
83691.1690643771
83688.5805406904
83689.7464395311
83684.272543323
83684.4983967398
83682.9895131888
83682.2704431122
83685.4655558193
83685.3517287253
83692.6791629413
83692.8592927207
83688.4464149939
83687.4588079973
83684.4610318078
83687.0993400023
83685.0436114198
83678.2640252786
83690.1506406839
83691.7448533031
83689.8028157196
83690.3623696427
83689.6714101476
83684.6882113303
83669.2391355045
83668.2403466085
83661.4210953887
83661.5657961016
83653.3941908786
83654.0633862675
83646.5281390181
83645.1583697615
83641.2239823395
83642.558193395
83638.6509562326
83638.3847710144
83636.8087969085
83637.2566086178
83635.6695726212
83632.5828366878
83626.1088521012
83628.0544547515
83618.8018959784
83619.4058231573
83607.4630305957
83598.3347907149
83602.9981120619
83605.5403843847
83603.8659654868
83602.3248034539
83603.6902168854
83603.0932063667
83602.1458399701
83601.9718506925
83601.0049455035
83600.4352041047
83597.2857436965
83599.1138334199
83601.3220810906
83593.2791445276
83593.2178305047
83597.2044693887
83596.556994906
83596.0034177279
83598.5349073333
83598.5052888754
83600.7897452927
83600.7872796204
83603.2011380607
83603.0969030903
83605.1245466112
83605.372549265
83602.5483312854
83602.3927770429
83603.6291654114
83603.8541211177
83604.0341359203
83603.7834339499
83604.0970405386
83604.3733450544
83606.2017546711
83605.9160406017
83611.1689971307
83611.058550284
83620.60699353
83621.4779448654
83628.1900188649
83628.4484408898
83630.9067225937
83630.6448612895
83641.3479823048
83641.8839208984
83642.8389568753
83642.3050576842
83655.3534987748
83656.0440716082
83672.5594262225
83672.3253178623
83693.5228123277
83693.6048360825
83711.6941451047
83710.8196634535
83706.192475638
83707.1214389918
83701.1337069173
83700.3104446809
83696.481563632
83697.3566777275
83708.1964255586
83708.0819598367
83702.778681913
83702.8917601212
83698.3033598016
83697.6923431372
83694.041867597
83694.7436768273
83703.5496234522
83702.9344027637
83700.1031516766
83700.6567664638
83696.8360732943
83694.5191504446
83692.2023838607
83695.7342408496
83703.6921416795
83704.1626039592
83703.3455102085
83703.5919344881
83694.2052427834
83698.9544949788
83702.8463138659
83703.5721349791
83715.1432788193
83709.0524254949
83707.057612459
83707.6480057752
83710.8740575534
83709.5629194627
83713.6811305387
83713.2891938329
83706.089062546
83709.1132793122
83706.6524910318
83699.4653486239
83701.7942392469
83706.8675010944
83704.7306196459
83703.103049319
83700.4481436383
83697.4271062039
83700.6252704439
83689.6943385572
83706.293921444
83700.0136895984
83684.7093838868
83674.6240214035
83667.4596818187
83673.5407866222
83656.4115888092
83653.9773183816
83654.0937504841
83653.9360545116
83649.5544908576
83650.0448460938
83637.9731693387
83637.349896493
83636.0615465448
83637.7887266721
83636.4942063715
83634.6810517897
83632.7790299111
83631.9964502196
83636.0243110674
83630.3536022915
83630.5186360812
83635.0484174636
83627.1450218082
83626.3636735344
83620.2045854186
83604.4769619885
83610.9313873145
83613.8535903822
83609.3537215542
83598.734815527
83603.0606886269
83605.4776712676
83603.0655435896
83604.1933081491
83599.3158907224
83598.8771548465
83601.1779456966
83602.1219985359
83598.2422104769
83598.1830626939
83598.0768439449
83597.7655779323
83595.7432305088
83595.9449613288
83593.5314497562
83589.8854434597
83593.3189689156
83593.8796921209
83595.9679308621
83595.8875674302
83597.8905855074
83597.9573105941
83600.2421732368
83600.2647097546
83597.0350621736
83597.4631947832
83600.4251038257
83600.1224571417
83601.4452339905
83601.5835295247
83601.9045208501
83601.8438998685
83602.4869789743
83602.0246461349
83600.8931419867
83602.073962466
83596.6222235115
83597.0470964365
83600.3655449174
83599.9414106971
83600.1384234826
83600.8146210161
83604.5331684392
83604.639101681
83614.8636329203
83614.3770366851
83620.2034878574
83619.8044144884
83624.9731577537
83625.2162607271
83635.2342368618
83634.52927077
83638.5391169615
83639.1306566442
83653.3178620776
83652.6215360278
83655.1635869401
83655.8655530391
83674.0186759061
83673.83029762
83698.2721593137
83698.1197939119
83722.4266334202
83721.8546905615
83717.3167985331
83718.1999155913
83735.6602426549
83735.6477481881
83728.2960961452
83728.3068718214
83720.9376829542
83720.8485293362
83714.2530461261
83714.3157785733
83727.488603684
83727.8738630634
83720.1187068878
83719.7008485027
83714.3474896526
83714.5201875734
83708.2565219059
83708.3894829547
83718.7848234119
83718.8045551012
83712.612661675
83712.7808516531
83708.4895185673
83708.4984395242
83709.4697938848
83705.793560853
83697.2141661902
83711.41899525
83703.6748627052
83689.1172392502
83676.7802006861
83660.9768812941
83636.5426303269
83607.1990140162
83580.4597900751
83551.1723236683
83533.9170039452
83535.6126342236
83566.1038722684
83567.260204081
83583.8817522403
83581.1183656861
83593.4705212089
83593.8360685997
83588.177636093
83586.4458238094
83593.8643892194
83594.6561435507
83591.1774890678
83590.4012109021
83596.1959103676
83595.674249835
83593.8877585081
83594.7526960224
83594.7606306623
83594.3209289695
83590.4568442582
83591.3260353232
83590.3336195794
83584.9611501555
83587.1088547315
83590.7566094474
83591.7748192884
83592.8024969917
83594.4999982642
83585.2874281469
83591.2801571715
83592.5578866395
83595.2296025235
83595.01024159
83593.6306573781
83593.8253593395
83593.8805625187
83593.6485959437
83594.6000571397
83594.2637795592
83593.6819390587
83592.8150227009
83591.5528218327
83588.6831719006
83591.9465452184
83590.7423521797
83589.157827228
83587.6607108401
83600.1064672807
83594.7821831881
83592.2066889836
83595.6220420222
83596.7606149203
83598.893994121
83596.8341028699
83600.8382426074
83601.4972443637
83612.4302657815
83644.0812486736
83641.3787060378
83604.6408832723
83581.7877287348
83555.6660361224
83568.1114013829
83585.458191353
83589.4747352169
83584.6416632014
83602.0033413867
83598.2344923177
83606.3035979706
83610.0192777538
83640.2603090266
83621.0877029143
83611.7893824671
83645.8225906394
83588.5339504271
83591.5229735677
83583.863510358
83577.8316914155
83569.186795248
83584.5569440128
83583.5054160854
83558.9534366895
83572.287419974
83585.0389888292
83592.7746147905
83589.1081329867
83593.9719650927
83595.6605162142
83596.8832898268
83594.4887245253
83598.3022453556
83599.2993683604
83598.5890955444
83598.3119033486
83595.0613528042
83596.2229602691
83594.4383568141
83593.5754202418
83570.6731093022
83585.0620606816
83592.5686675389
83602.2248886062
83601.2503774216
83587.027059024
83594.0676650853
83606.0624276842
83614.062827574
83626.7494484788
83613.7929208226
83612.8055585623
83613.7504986492
83612.0986635027
83608.0528182623
83609.0533227207
83615.552224205
83614.9150305723
83622.3814550397
83623.7768191432
83628.6217576665
83627.5547064027
83638.308060385
83639.3339241315
83648.5797042808
83647.9585076059
83665.7593238793
83666.1036652168
83672.0017105348
83671.6862932729
83697.806251327
83697.6712777599
83727.4020188303
83727.1298116004
83725.0507592085
83725.5078235183
83748.0570523245
83748.5241619708
83743.2017842163
83742.9367562368
83763.5015103148
83764.3389656806
83754.5034151137
83753.6708546981
83744.8755537395
83745.4756793445
83735.8735884412
83735.3299102571
83744.0645631677
83745.1510667415
83750.4848914868
83750.6352377352
83745.415238054
83745.2983718442
83740.0976796751
83740.2714110167
83735.5492234601
83735.3733529478
83731.890887968
83732.0111611901
83728.7239605785
83728.6255584626
83725.8093510518
83725.9268780518
83721.7025169329
83721.8775359945
83721.7712376837
83721.181538644
83725.1552096771
83725.8521942886
83727.7676848708
83726.7857411197
83730.4820296791
83731.4997888528
83734.9281641792
83733.8143427111
83740.7277794124
83741.5900781173
83745.9812626876
83744.0826456457
83759.5398608947
83759.3186888542
83756.2672201263
83754.7216566072
83753.3065580849
83750.4526670509
83743.0533846531
83738.6243371723
83732.0631198912
83717.294082175
83695.8649161467
83668.7890421092
83631.7373966786
83589.5587211211
83559.6553642586
83542.7989960591
83526.4428138991
83511.0779215083
83507.929383129
83550.020833041
83553.2365937896
83575.7851095767
83573.1140568451
83566.2577206862
83568.0166914368
83582.9983775849
83581.3518979244
83578.5937151932
83579.2791331193
83588.5965195982
83588.6500474123
83587.2354598816
83587.5877891169
83587.8471035039
83586.1571108023
83584.5833015827
83588.462611769
83590.8174662348
83588.3092230717
83585.7700075823
83588.1993531178
83590.3279020234
83591.021817839
83584.5938914067
83592.0254392669
83602.6341772871
83632.0196560856
83583.1521291884
83595.6892487348
83598.9083053982
83573.7035927029
83649.9754439181
83626.3777344
83625.0490674125
83645.6199842062
83633.0072390109
83627.7905708071
83621.0379427309
83620.5503037634
83616.0419048146
83617.1289544031
83621.3601527617
83620.2940458605
83630.8293767372
83631.7666175047
83639.1031159711
83638.3728507556
83652.0869049434
83652.7741678793
83671.0286268732
83671.1938999146
83690.4057336667
83690.1549603007
83724.1637467787
83724.6486648596
83726.7476403518
83726.699183547
83752.7766696248
83753.9546972512
83753.2380168258
83752.3803053342
83777.4545018763
83778.8464552623
83772.0554171731
83770.9211654227
83786.3583247643
83787.5963632555
83795.7500598091
83795.9847927959
83790.2506971831
83790.0508909295
83783.6545362716
83783.9375545717
83777.5434211424
83777.2324138233
83773.0924294258
83773.2954847344
83767.1692186143
83767.0274980147
83760.6991275702
83760.9282426236
83754.9699477499
83754.7678188697
83763.7341200863
83763.9548572877
83759.0484932104
83758.8773818226
83752.7745835864
83752.986530095
83748.1744242905
83747.9681042383
83742.4522921309
83742.7625672094
83738.7179898636
83738.4700529376
83733.9583605372
83734.255828525
83730.6605201793
83730.5610379557
83728.0016175263
83727.8066425955
83731.2913459655
83731.4762893242
83727.4307728447
83727.3400947317
83721.0207799222
83721.1720175969
83718.3598245125
83719.0431030459
83717.3886149881
83716.3885960137
83715.8140579441
83716.2094808215
83714.5504279924
83717.4436255953
83723.0598394241
83721.005374527
83714.9309344448
83714.8266865603
83698.1696212345
83705.4647517632
83717.8186752226
83718.257015409
83714.7498293974
83713.068817926
83701.5210925671
83704.6182738138
83696.5398806218
83692.7832254237
83679.2089100193
83685.2198429469
83670.0692112217
83667.0743785759
83650.7793733744
83649.0868427281
83633.6653089724
83632.4663187438
83636.7163277921
83635.4406905866
83638.1402502696
83638.2471027582
83620.7846550618
83620.7585419757
83623.2223794371
83623.323051851
83623.561122914
83623.6017963114
83625.2307796644
83624.915419854
83619.4242801428
83621.7047004709
83633.7112602727
83626.9187834287
83621.6080402391
83631.5312048146
83615.8486545246
83612.9667169216
83621.9979506511
83623.5205887647
83618.873848422
83612.843331858
83608.3321787353
83619.4634988242
83588.8690134353
83593.9381951673
83602.645824564
83605.8654257196
83600.3645312765
83594.6327068003
83588.7856637465
83583.706930308
83578.1817063478
83578.5775973279
83577.8495993066
83581.5245007502
83583.7837612194
83574.7419412012
83586.4146891366
83584.4589053902
83589.5470599473
83595.0520773709
83594.0513987532
83594.2329695056
83599.2198528323
83596.0054174213
83611.5337694641
83608.8711131232
83615.4609341052
83629.2538836464
83630.8317786799
83616.5302854464
83616.6013136532
83617.6330130757
83621.194026002
83622.5025353983
83610.7214230587
83611.7714936795
83611.6442699192
83608.9320289535
83621.04041008
83622.6189283147
83621.9232992668
83620.7264268043
83647.6428185045
83647.6506841069
83666.1387356454
83666.6446893184
83683.1887885183
83682.2412123778
83701.9476438055
83702.7544670773
83714.3584147521
83713.5679999816
83737.7715871199
83739.7304981253
83750.4601321769
83748.9888320917
83774.5375472477
83776.3535890174
83780.6725139191
83778.955300976
83799.9223130639
83801.385649424
83810.1367811236
83810.2802274572
83808.034446949
83807.804349054
83803.4098704996
83803.7287007397
83798.9257302137
83798.5403944982
83810.7269628811
83810.6895975906
83806.9997997705
83807.085586056
83800.435404056
83800.4118489977
83794.9603366421
83794.9024847281
83787.8891975801
83788.0531646584
83783.0768933872
83782.9791485402
83775.986660073
83776.107867958
83770.5500417402
83770.3626811908
83778.5866069443
83778.7071888993
83771.9987037569
83771.7278058933
83766.4313360822
83766.6262140261
83760.4021829119
83760.0763256091
83754.8600467935
83755.0711733057
83749.4062201316
83749.0648896819
83744.4310593754
83744.7492915716
83739.9897799361
83739.6123699989
83735.4795325177
83735.4767791926
83740.3966783563
83740.3565673851
83737.1385210482
83736.9961612642
83741.0345334295
83741.1319464201
83737.3054823361
83737.3787560877
83731.5586602949
83731.0546580601
83726.596449904
83727.9074882879
83726.8372428564
83726.0218343127
83725.9587498831
83725.5568144927
83732.1505833454
83731.031764713
83732.2718215813
83733.7588815599
83736.272877974
83735.1406163853
83742.5686419513
83743.568611296
83740.0337275785
83737.9836477458
83736.4874991602
83738.4066300065
83733.6505068159
83733.2900505605
83727.3198516043
83727.0275407502
83722.357280177
83722.5487377977
83730.8881439909
83729.4219227589
83726.8087970255
83731.5890003542
83724.8967100229
83720.6040592526
83710.0973120524
83713.5165502476
83700.3141403666
83696.1170965096
83682.872334008
83689.4807197609
83674.4888703643
83668.3494313421
83655.5561794594
83665.395347824
83649.8827767055
83651.2209852584
83616.9692826967
83617.7559509054
83586.5078078102
83585.3704216481
83604.5688457118
83605.4211908567
83614.9164387401
83615.0549830011
83600.4012653458
83600.1882543259
83606.2248195375
83608.0128563785
83612.8719174334
83612.3660571381
83614.2187968714
83614.7996541829
83604.2827950706
83599.9103995033
83617.4322809877
83613.4891343763
83606.0211221463
83616.4080828589
83579.4003511101
83593.6147500966
83579.313722981
83573.3641335293
83559.9825011471
83556.903454989
83537.6537931502
83544.0361963791
83494.8753765311
83498.165558352
83463.6183652639
83461.9997998752
83437.619871594
83437.0410785886
83405.634371398
83411.8142525108
83486.9885434225
83487.8098321258
83540.1207473898
83537.4282779358
83533.9852677999
83532.5529410908
83562.5305531551
83562.0818879716
83553.5177493405
83558.8526871034
83570.1669862182
83558.2014617026
83578.7653435839
83579.5089697151
83571.0884737941
83552.4764106511
83570.3725826676
83570.6117908104
83573.7557190341
83577.7243753818
83588.171146008
83582.9336128525
83589.9140642048
83595.2125734771
83597.5132636707
83594.85830503
83600.7561244665
83608.7081324233
83612.7895082517
83604.1272200788
83595.0335834765
83592.4232088169
83599.5745896431
83602.9189197285
83606.0906472702
83603.2668177217
83594.4730069775
83596.9260669809
83592.3598675201
83587.9717121243
83581.6325596832
83586.8382684249
83578.7384849619
83576.4893483469
83582.8468237471
83584.4646833013
83586.4438397148
83585.0114289794
83589.3330342313
83590.1204837373
83600.1111313535
83598.717470945
83604.6445431178
83605.6665936353
83627.0082954143
83626.8712957177
83644.550611878
83644.4096144266
83645.761472142
83646.4433435603
83672.5829470276
83671.7220813147
83697.7497780966
83699.7692521195
83722.0298214941
83719.9941887415
83739.0453408249
83740.9941740182
83764.1427080798
83762.3205190041
83784.0917543444
83785.279697899
83790.4130069963
83790.3353017621
83800.2231500591
83800.185018213
83804.9013160405
83805.1299778454
83807.706658202
83807.4463148186
83819.5272096928
83819.026584679
83821.1014987411
83821.5351423752
83819.0025955345
83818.7567276359
83815.9324060044
83816.1494030325
83825.5656739985
83824.9696345952
83819.7956177782
83820.1417923066
83816.1674067985
83815.8885997965
83809.4879030169
83809.6402021269
83803.9112701752
83803.8531674013
83796.8794048134
83796.821393872
83791.4966025552
83791.5793667267
83784.6708965618
83784.4958366488
83792.0805539745
83792.073701053
83785.911162426
83785.925618435
83779.232340857
83779.2926759679
83773.5381530581
83773.5244468621
83767.1847464208
83767.310977593
83761.4676732893
83761.4157995962
83755.4816102644
83755.6309655645
83750.3239522873
83750.1450223457
83744.823517531
83745.206602493
83750.6719565642
83750.3956636175
83745.5685633354
83745.509360858
83750.8367405935
83750.8147025653
83747.3330956067
83747.1568337801
83751.3297648112
83751.4281391551
83747.5089200775
83747.5589493602
83741.4545572809
83740.9338627484
83749.1344564019
83749.6861788525
83756.6389281965
83756.1726987672
83748.9975671023
83749.9448344081
83745.7697090954
83743.4838959996
83741.9060118322
83744.1499160954
83739.1823747461
83738.2061308538
83733.6807289386
83733.4873293125
83728.0129717075
83728.7034241754
83718.0608906309
83718.2618667354
83712.5240259639
83717.0588591943
83712.5717119581
83705.5693276383
83707.3236865196
83706.4587392863
83695.2507543436
83694.2560499026
83680.1150843676
83689.2127303967
83667.267856626
83668.175432498
83668.9439958843
83667.8683404105
83650.9087029329
83660.9960248169
83636.7557212904
83633.6229155615
83594.5376039644
83595.4574979236
83556.6228333748
83558.3906540535
83532.8131381812
83530.1472716548
83561.8273030749
83562.9921891082
83585.4560666322
83585.1152834533
83561.2132902837
83562.0015905379
83583.4692408658
83581.8689666182
83591.9582578189
83586.5990658351
83602.1811418554
83601.0995183439
83591.7124194581
83594.1634782278
83575.8154529988
83580.5517744513
83570.9799948419
83579.1318822812
83556.0413899569
83551.990919419
83519.727869141
83516.8144428035
83494.2666250402
83491.7901049836
83470.6668037758
83474.9596471397
83419.8671688201
83421.9912226336
83378.4225863329
83379.5715467565
83354.1061396013
83344.8180807423
83313.128079938
83330.1657414556
83323.2979594539
83304.3659175585
83365.2575063096
83362.0573689074
83463.9531061272
83465.3680226951
83469.3269090804
83463.6472845358
83455.5206829172
83459.9140969472
83502.7028391929
83504.8552842231
83545.9053978545
83535.439890289
83543.2891711755
83541.3765388789
83558.1594490104
83549.7867156676
83558.2260120923
83557.902773245
83556.5599754633
83551.8253985546
83540.9824873485
83547.5125225771
83545.2161054289
83547.0416330493
83558.7601491529
83558.3428769187
83573.3270250361
83570.5273250803
83577.2225025417
83578.6279057176
83590.5707496362
83586.9453060941
83583.3414563511
83569.5740147495
83557.3053935782
83571.1895220053
83572.6216802455
83572.7797097231
83562.4455058421
83561.3125406598
83564.4425350547
83564.429518384
83567.2340299349
83567.6845224872
83570.4937714295
83569.4476977277
83580.8101688192
83581.530163728
83596.9113674767
83596.6465550724
83620.3023430764
83620.2337831162
83612.0629056101
83612.1836109976
83644.207581636
83643.7997223601
83675.845340545
83676.8705125474
83712.5727550223
83711.0303743686
83725.6990029884
83725.5232690882
83721.8190745288
83721.6388035086
83743.2772865833
83743.766108127
83760.0197692895
83759.8156456573
83776.7687082338
83777.0026039353
83782.2892824685
83780.6965267928
83795.2109499984
83796.385073993
83809.1635409049
83808.0564059128
83815.0751001556
83815.7143943563
83821.9287686918
83820.0750163984
83826.0552505515
83827.4853609027
83830.3588412508
83829.2933788175
83827.6377643213
83828.4096151306
83832.9078282665
83831.808676395
83829.8343824947
83830.6995233632
83826.0793563965
83825.4928650957
83821.8677137958
83822.3488958885
83816.3062843046
83816.0097573487
83810.6255562111
83810.8725095575
83804.2777555812
83804.1501452275
83798.7140777254
83798.8078084518
83804.8516726535
83804.6772549895
83798.4678019448
83798.5459974628
83792.6021244046
83792.5347228324
83786.1645088646
83786.1756304279
83780.1878094797
83780.2013040866
83773.8992169236
83773.8406095941
83767.8005616018
83767.8643328253
83761.8797811885
83761.7493758912
83756.0645029066
83756.1830084205
83761.9010227931
83761.7586718856
83755.7820363597
83756.1115195753
83761.5099335572
83761.2709686356
83756.1451922756
83756.056170891
83761.2144047943
83761.2096716385
83757.483478673
83757.2259639732
83760.9998729562
83761.1569016739
83756.73302237
83756.5722582727
83764.3513442473
83764.7379884515
83771.0821572552
83770.4787608962
83762.1132675645
83761.7374280537
83753.8710100143
83754.8240978694
83750.1504719499
83747.8225934185
83746.0361446369
83748.374290596
83743.1689768965
83741.7127795515
83736.2260253715
83736.7620135971
83731.0539293472
83731.0764492075
83723.6221635603
83722.4103213882
83713.8244290623
83715.5934231163
83703.6543287416
83704.2013948665
83692.1789378585
83689.942500613
83694.5189066145
83692.8000485397
83681.1436317459
83681.5939855371
83679.7238358165
83680.6471902363
83677.7935386905
83676.9121977182
83678.8668188226
83676.3210044761
83660.9198000791
83666.5681013929
83643.6483652632
83648.6392229169
83612.7348134735
83610.2332577637
83563.7025600391
83562.3790775046
83516.7346530119
83520.373459488
83493.3337013908
83488.579421343
83453.1659238879
83457.5447693547
83499.9724926877
83497.9727874068
83533.2631668057
83534.2229731994
83507.446492791
83506.3401829467
83535.5328082827
83536.1458791018
83566.193143342
83563.0155471221
83580.1355281098
83585.440894679
83573.8720948288
83560.0284393635
83531.1665541739
83487.3111991581
83442.0778274427
83390.2387051265
83346.5604169161
83323.3375942954
83321.3916171962
83305.0599883868
83302.801568589
83359.2667887771
83357.1133129776
83419.0770454697
83416.7396515895
83406.6925005634
83405.6068604112
83398.7732689974
83399.7261956922
83392.6023533323
83391.5346432006
83452.1188402473
83454.0079109445
83502.3394334861
83502.8159341358
83541.7769279026
83536.3689339837
83535.7953750854
83536.772744557
83505.7802936349
83503.2087095897
83456.6420784696
83455.691234297
83453.1910464503
83454.9581772338
83499.7671244023
83500.975813842
83540.0212283223
83532.792019531
83533.0572919522
83534.5726393883
83509.5930347864
83515.7598107244
83535.850693877
83536.6998231119
83504.9164627196
83465.6966205392
83467.343584882
83428.8370490806
83435.1755777093
83369.7335954874
83372.5477915221
83415.3554069929
83352.8000816296
83346.7159517062
83347.1718141778
83332.4763433109
83330.7678083864
83314.8057925789
83317.2074685797
83307.2605626975
83306.1797517368
83315.3310107418
83315.7304146024
83313.3043644092
83310.3417408665
83309.3529355832
83315.170497328
83310.4005090788
83307.2999558633
83306.7130673757
83312.5269649565
83287.0871662836
83295.9311254569
83296.3140341505
83283.8905214152
83294.0039681064
83298.7088307951
83304.5029618475
83303.5618586631
83311.8358689515
83311.9595346232
83324.4339830723
83324.5350901987
83328.5004078306
83332.7161092931
83334.0465458135
83330.1706140015
83332.8680156095
83334.7455529388
83364.7528907082
83365.4586653883
83374.3489032757
83373.9376956004
83385.3022081027
83385.4852246253
83400.3608174233
83399.821759328
83415.7971711063
83416.5662966827
83433.2787429339
83432.2486237493
83447.7238348447
83448.9418067579
83462.9436823702
83461.6420817029
83472.7990695864
83473.9700999848
83483.4797007628
83482.7851034516
83491.6919932764
83491.4882346712
83504.6243926111
83505.6372612057
83526.9471108492
83524.9616026622
83564.4168575768
83566.5917618586
83625.8861941811
83625.0381368723
83695.011438873
83694.3845288865
83752.6024860841
83754.2699896409
83787.1095327505
83785.3019839863
83801.1612018475
83802.6999583782
83809.9969482725
83808.5136487156
83813.571703724
83815.0948421851
83817.5954197763
83816.2316678207
83818.5278094845
83819.7035395803
83819.432027422
83818.480260007
83817.635105863
83818.4431342085
83815.5801524196
83815.0613649516
83812.1229253547
83812.4980868104
83807.9976115674
83807.6974814412
83802.9538327664
83803.1681494855
83797.5996870849
83797.5079576566
83791.8510589517
83791.8981488942
83785.7824471791
83785.7595176135
83779.639674923
83779.6039043618
83773.393334054
83773.4772148449
83767.4423269483
83767.3642847353
83772.6880843682
83772.7525666585
83766.7033047893
83766.4285301094
83771.5609978448
83771.7433511412
83766.0920685196
83766.2207995136
83770.8702365541
83770.819515477
83766.470685666
83766.7909075073
83769.8601651835
83769.6466310024
83774.4282156597
83774.7670696661
83776.9522307621
83776.7010634668
83780.4074065546
83780.7574457937
83781.6816227655
83781.3693394858
83774.2629653734
83775.1439549701
83765.3058192576
83765.5105441935
83757.8747959838
83757.0693333628
83750.6097126474
83752.3933032275
83749.9926850112
83748.5550301352
83744.5853062763
83745.7092480132
83739.0011796121
83738.6180850105
83732.7528944485
83733.1272717485
83724.2078616541
83724.5299295102
83713.7388718686
83713.6036704503
83703.9780898536
83702.8834680727
83690.3336758502
83691.457179401
83689.8941725884
83689.8611983708
83685.9425624827
83684.9938396876
83668.5863165367
83670.5038536815
83663.7645261084
83660.105855974
83645.0395336029
83648.5732907679
83645.6313945596
83646.4452239452
83625.5804491647
83622.3530602887
83594.3517154761
83600.8163453164
83560.6694290834
83554.6552359448
83517.8175636127
83510.8097397458
83460.222127681
83466.682864351
83442.9331859321
83435.2819905051
83399.1874897458
83406.7942805524
83380.9527339391
83375.370057819
83425.6880904472
83429.3232072735
83470.715755865
83468.7261434234
83451.4390182983
83450.1183564349
83416.6782552516
83411.3483195829
83386.2973313924
83392.5781836485
83329.1418760336
83326.0366849346