/*--------------------------------*- C++ -*----------------------------------*\
| =========                 |                                                 |
| \\      /  F ield         | OpenFOAM: The Open Source CFD Toolbox           |
|  \\    /   O peration     | Version:  2312                                  |
|   \\  /    A nd           | Website:  www.openfoam.com                      |
|    \\/     M anipulation  |                                                 |
\*---------------------------------------------------------------------------*/
FoamFile
{
    version     2.0;
    format      ascii;
    arch        "LSB;label=32;scalar=64";
    class       volScalarField;
    location    "500";
    object      k;
}
// * * * * * * * * * * * * * * * * * * * * * * * * * * * * * * * * * * * * * //

dimensions      [0 2 -2 0 0 0 0];

internalField   nonuniform List<scalar> 
209453
(
0.0158045664686811
0.0168269036234757
0.0223830079835184
0.0212620164105978
0.0165572904261306
0.016465407859334
0.0208298910267277
0.0201788166075479
0.0197705481201473
0.0157907176210827
0.0160114185834416
0.0155311487203166
0.0153833624293934
0.0154603328229566
0.0155981653637741
0.016172174187082
0.0211261279866306
0.0208375363970141
0.0158860414264587
0.0159748393902328
0.0222449123685326
0.0223609189667392
0.0162941343302682
0.0156830805914512
0.0155350133463713
0.0156200196336883
0.0157718719322737
0.0165425400559012
0.0236469777556871
0.0235491538849098
0.0161769541195229
0.0167390050213115
0.0247210821680194
0.0249203480417676
0.0171699266680557
0.0173111803150904
0.0253208325683068
0.0238004314525722
0.0169738930857684
0.0171463348021023
0.0234347234539735
0.0226892094823313
0.0171518989998186
0.0169902214674604
0.0210298966470752
0.0196510563593668
0.016579463120633
0.0160329564491381
0.0186255157904407
0.0171719232760545
0.0155530607518913
0.0152644626533385
0.0163347248301155
0.0157512181459089
0.0153141786949952
0.0150262949174432
0.0150622848929021
0.015049452516037
0.0150148226255434
0.0150111270097004
0.0150081582804033
0.0150231960323801
0.0150383710987238
0.0150745508987543
0.0150477010973879
0.0152259523505438
0.0163415764243054
0.0163916072730333
0.0152584527811849
0.0150607441146579
0.0150872165185211
0.0156036961447819
0.0157018207000703
0.0152726564792604
0.0152904935618527
0.0150252625450929
0.015026492648729
0.0155448887119258
0.0171624350134799
0.0169934053214204
0.0154243653519658
0.0151092713257776
0.0151671380204887
0.015183008059213
0.0151178054025341
0.015449196828256
0.0156441149324072
0.0156660943243174
0.0154658041135587
0.0153238244182525
0.0154462672234086
0.0152039573703639
0.0151313857305834
0.0150871647452837
0.015127465141158
0.0152115692763606
0.0151446415731843
0.0152011253642623
0.0152674145675449
0.0153159552199312
0.0152606059810183
0.0153293141929339
0.0153915332075022
0.0155300316304879
0.0154186387745474
0.0157804468848489
0.0160059520452715
0.0163355334635636
0.0161721597029732
0.017392216399637
0.0262353635318611
0.0263029486068902
0.0176857276992395
0.0178002556991906
0.0267307635918953
0.0258505554373111
0.0174969045285243
0.0177581123101068
0.0267364883348261
0.0276184414703456
0.0177824868399062
0.017845489633654
0.0273447420615601
0.0278066336639887
0.0177386721468808
0.017795775795567
0.0280176755161633
0.0307053338710507
0.0193212741942571
0.0188950207929937
0.0297787697803196
0.0290365824592138
0.0183288412613224
0.018540143524904
0.0307743812295374
0.029923040698752
0.0178330394053987
0.0174065666694362
0.0269016677022911
0.024679285695369
0.017248825152819
0.0168037970320145
0.0238087090935588
0.0221855210392401
0.0166955572031298
0.0165815834071151
0.0207669604811371
0.019544216200125
0.0163203501355681
0.0162470408323077
0.0194022939012713
0.018487893045605
0.016017790654373
0.015554585492467
0.0172471328114111
0.0164286414870807
0.015281962766405
0.0150548225679968
0.0150200969867839
0.0153218678856793
0.0158280073367764
0.015836425220956
0.01528698947601
0.0150116254938787
0.0150342946913869
0.015018029035175
0.0150078721370491
0.0150132640215652
0.0150342664921897
0.0150387264541849
0.015148968116521
0.0150953737142191
0.0151871181730462
0.0164385885473321
0.0164407587811151
0.0151168594778579
0.0150164197059695
0.015004520637713
0.0152883782747454
0.0158302085522448
0.0159096323230712
0.0153437149224762
0.015001329158639
0.0150126172349879
0.0150085650920891
0.0150047188167187
0.0150025598199999
0.015004994861476
0.0150085837689572
0.015003790130011
0.0150053345515769
0.0150157552045805
0.0150105673530243
0.0150050027634658
0.0150033125637522
0.0150043817920005
0.0150016656302518
0.0150013580983444
0.0150032296124424
0.0150043694817962
0.0150087709911181
0.0150060848155767
0.0150074517920952
0.0150168229533101
0.0150631025908307
0.0150326992517279
0.0150197930400489
0.015029316086152
0.015075736954801
0.0150561127583144
0.0150821589602133
0.0150998435335152
0.0151326938247443
0.0151178373947336
0.0151571957893077
0.0151923902724361
0.0152353947576229
0.0151997601572086
0.0152431176827963
0.0152812100086961
0.0153341202710122
0.0152909646234392
0.015344706025662
0.0153872850269562
0.0156683484668941
0.0155511502645037
0.0156316909507284
0.0157302036801118
0.0163821259074573
0.0162304635890176
0.0162312864787232
0.0163743804873806
0.0176255740656255
0.0177196274223175
0.0180750429547042
0.0177928190949343
0.0177333779844105
0.0179614173597601
0.0192938009019593
0.0321925649556435
0.0312286735294063
0.0189178871028221
0.0184008086647991
0.0308683361973713
0.0323801488265015
0.0185794659835734
0.0202442444945683
0.034447247668855
0.0342229400916975
0.0196434515471658
0.0184339130431825
0.0310376969593665
0.0280333538765408
0.0173042432597668
0.0169415263197278
0.0256629178335357
0.0253265064890482
0.0164360187836424
0.0163860090169107
0.0236287092614039
0.0221418755992902
0.0163737670833928
0.0163751075791675
0.020721791085061
0.0211355250652989
0.0164334305409412
0.0163604008960346
0.0194958901979059
0.0192715977008058
0.0160934279812906
0.0157614992003748
0.0184038232302984
0.0172328572390997
0.0154241935143597
0.0152512027852122
0.0172105400726488
0.0174151681044786
0.0153793614878806
0.0151596772038728
0.0165732294886321
0.0166609566038396
0.0151422697514914
0.0150112344588165
0.015003839414002
0.0153738830164597
0.0159613299848662
0.0159022996347722
0.0153415415530036
0.0150023031311634
0.0150088601576218
0.0150059490665851
0.0150026246918817
0.0150025878826574
0.0150062219374832
0.0150063736462223
0.0150024518513382
0.0150024348816987
0.0150064909438441
0.0150067777216403
0.015001703918608
0.0150009317050677
0.0150008388080764
0.0150046244228493
0.015005116070748
0.0150150272128753
0.0150127244610204
0.0150306269534273
0.0150398162882884
0.0150868334559298
0.0150688180107065
0.0150938985336861
0.0151068614849769
0.0151362663740508
0.015127231397782
0.015114386174899
0.0151249205687923
0.015158524016826
0.0151486909665673
0.0151545984115081
0.0151692628523184
0.0152068330262847
0.0151912150108742
0.0152285391310523
0.0152451829389801
0.0152820250422967
0.0152657285520211
0.0152855464385767
0.015302279422501
0.0154079843539153
0.0153664900550336
0.0153745286840308
0.0154172392113488
0.0156995715654819
0.0155877555023851
0.0156269028814928
0.0157327682478033
0.0157846904403195
0.0156966332656306
0.0162992444399028
0.0164424757054538
0.0164318972855047
0.0162893523401456
0.0164814837689602
0.016595235631333
0.0178452581329799
0.0180993732153535
0.0194821918452066
0.035532795927513
0.0335324406685994
0.0191767224783908
0.0199676268480423
0.0207767411423054
0.0382750244377169
0.0355850469468773
0.0340192350340959
0.0190953329285264
0.0197513953352088
0.0360584167447667
0.0386473182526022
0.0429848952857782
0.0215352917535422
0.0204072229620752
0.0193020776041738
0.018811272039533
0.0188446206064096
0.019308906092924
0.0204969869074309
0.021460069761243
0.0457173397777153
0.0410223770569893
0.0432256370809821
0.0205657057114585
0.0207414478815531
0.0397972471016034
0.0397137676989822
0.0207803002698136
0.0207088569056573
0.036607314421196
0.0204463314872726
0.0180811436428484
0.0204637841061846
0.0403019095706158
0.0351304110010135
0.0201555224869295
0.0195694174408584
0.0326960472795189
0.0295528233941408
0.0175402633772892
0.0166025348469165
0.0272918589742297
0.0280696785971136
0.0165671082239135
0.0164841221981721
0.0260421955242351
0.0242802329455139
0.0164560348807098
0.0164493667212334
0.0227561653866743
0.0234885382611031
0.0165523165456464
0.0165793052661287
0.0213923724824139
0.0205309600769879
0.016412131095775
0.0160191299601504
0.0197791329151009
0.0189777786212389
0.0158645542017731
0.0158740602003028
0.0196710347105781
0.018159298787893
0.0154652169485241
0.0156208249712017
0.0185622865658624
0.0186799436881413
0.0154690209665284
0.0153448202359084
0.0175316018961875
0.017324359987919
0.0151401267698608
0.0150692102881098
0.0165555874843142
0.0165525882599673
0.0150711767896842
0.0150131936551842
0.0158998278051321
0.0153411549918227
0.0150033580093015
0.0150038518373367
0.0150084373736555
0.0150071899227613
0.0150026251749459
0.0150023907496568
0.0150075703344255
0.0150079330743145
0.0150022037125747
0.0150016493080941
0.0150125895227144
0.015006346633969
0.0150048839439108
0.0150002303088292
0.0150000478128625
0.015005753189372
0.0150043067557557
0.0150224342953138
0.015037980744671
0.0150785593157128
0.0150527590650249
0.0150158860489399
0.0150225670335787
0.0150768083126418
0.0150478878184238
0.0151019862593077
0.0151408028584404
0.0151668548076826
0.0151326297164217
0.0151733722147685
0.0152059205017855
0.015143496716163
0.0151311814910989
0.0151670819465241
0.0151790135768736
0.0151696654040577
0.0151613304147941
0.0151953312128314
0.0152038626694877
0.015192967212605
0.0151829096712504
0.0152174571486052
0.0152279720260859
0.0152621632543786
0.0152514168899116
0.0152700158081523
0.0152817769770337
0.0153012803458269
0.0152843543537497
0.0153041287324035
0.015322453570828
0.015323351076899
0.0153051872997367
0.0153891248151752
0.015429414999589
0.0154401294735917
0.0153995552414971
0.0154227719125303
0.0154638474988048
0.0157591993744454
0.015659832115296
0.015779805668058
0.0158413920113059
0.0165294507370654
0.0163887502652767
0.0166159924839853
0.0167036679894394
0.0172100891154087
0.0171270128350433
0.0186170841911893
0.0183501504336954
0.0171532878243489
0.0168517415536036
0.0163390577487794
0.0158360053995974
0.0157256624864278
0.0157293587212644
0.015675582242766
0.0156654422015849
0.0156310807102133
0.0157450806972208
0.0157305428643881
0.0162977091438417
0.0168625744430825
0.0268462734767434
0.0238089105225544
0.0164502348181465
0.0158105379354773
0.0218197895603521
0.0201160553994791
0.0156095652915189
0.0153210323631533
0.01932346604224
0.0182406553255258
0.0152209544487224
0.015224803405013
0.0182247826910253
0.01731696873564
0.0151433556381462
0.0153587080087978
0.0175243813576662
0.0166620188103684
0.0151467849984532
0.0150111731723058
0.0150055263629765
0.0153728569824086
0.0159609606517324
0.0159108078160457
0.0150130659374112
0.0150018344176291
0.0153425002642861
0.0152870848563704
0.0158055491426147
0.0150152711866697
0.0150023377407952
0.0150034134661217
0.0150085685635299
0.0150069281129591
0.0150030490056641
0.0150043754134876
0.0150095700312982
0.0150128059073022
0.0150588467290381
0.0150552923987323
0.015164146127727
0.0165770332571271
0.0164011334312979
0.0150995079277563
0.015158153808638
0.0163851303932726
0.015807393607809
0.0152852768261845
0.0150065792631358
0.0150281553723707
0.0150147087918895
0.0150046519632388
0.0150097113296606
0.0150328941075655
0.015044114040879
0.0150091252378854
0.0150270164998966
0.0153128722001055
0.0157399413430786
0.0150625488435814
0.0152805976692302
0.0163156935376691
0.0162936767675346
0.0162772452209933
0.015143263781908
0.0152525677669758
0.015060731815681
0.0150440734510235
0.0150190809978752
0.0150270030369564
0.0152725217338272
0.0152904668746036
0.0155948255603934
0.0156530523890965
0.0155925398056259
0.0154124552578305
0.0168737365304605
0.0169833527873915
0.0171594950718456
0.0155444358899064
0.015981495655653
0.0185688898259216
0.0182579750620255
0.0179215743291112
0.0157001824006562
0.0158416281976335
0.0156362349814559
0.0154203398300747
0.0151317369930911
0.0152000157455765
0.0152267204628245
0.0151504546041497
0.0153082105802722
0.0154450313480235
0.0156580915680073
0.0154366297898657
0.0156965429311838
0.0159197230312116
0.01896909119689
0.018617925445308
0.0195677889132397
0.0157363800412973
0.0159895185262355
0.0199253076979531
0.0205805620856389
0.0163908691339796
0.016470919075443
0.0209942514736569
0.020835988141457
0.020597557293615
0.0158017869232217
0.0161212689230526
0.0155671475083945
0.0154198667924124
0.0152215455349257
0.0152769884111414
0.0153264798722431
0.0152745442521509
0.0152149201031676
0.0152479861517076
0.0152903674578585
0.0152558950070379
0.015202469830339
0.015214744193429
0.0152510050831299
0.0152385473136191
0.0152298776832812
0.0152389232176225
0.015273644763132
0.015264001024078
0.015282876842951
0.0152937483376666
0.0152817015411041
0.0152698970338953
0.0152897434189241
0.0153035516374557
0.0153033553748131
0.0152896431327824
0.0153098169606306
0.015326540434435
0.015344929037232
0.0153242228909574
0.0153251682529924
0.0153457595112814
0.0154506266145363
0.0154107756707928
0.0154227507772015
0.0154581260233886
0.015472100164833
0.0154384416958144
0.015450476229879
0.0154848861940212
0.0154856358682564
0.0154514159674152
0.0156797545441522
0.0157637207220158
0.0157883513295612
0.0157039395242693
0.0158103339360151
0.0158666114220737
0.0158717558163564
0.0158325542861966
0.0159153610568526
0.0158757287289967
0.0158493681749874
0.0157935043824521
0.0157897891514407
0.0158482549351833
0.0157675688171284
0.0156774225392895
0.0156669218334212
0.0157560556041987
0.0154713788049225
0.0154348948024397
0.0154347475478296
0.0154711195317423
0.0154855504546609
0.0155216350827079
0.0155381343250422
0.0155471460474416
0.0155470116069943
0.0155614823141053
0.0155617497853654
0.015563504689319
0.0155630320899205
0.0155715500599545
0.0155698516928524
0.0155868105931286
0.0156097020467526
0.0156126602923548
0.0156726013425302
0.0158125838000106
0.0159009472050271
0.0154446484990667
0.0154713507078357
0.0161890628329752
0.0237842668980054
0.0220992769248068
0.0159359624028339
0.0155758120812576
0.0205820510435419
0.0205525989315525
0.0157765375389327
0.0153604397452863
0.0192930494088087
0.0200037557017839
0.0156789948987949
0.0154757598506434
0.0186406615099179
0.0185121843526251
0.0155233322255148
0.0153748072993005
0.0180440022501083
0.018075403478939
0.0155748100970669
0.0153233780799675
0.017124226309828
0.0172039125451259
0.0154687656689783
0.0157221272733499
0.01820983777365
0.0199875038965202
0.0163432947663588
0.0161649537090988
0.0192466436963975
0.0195370440439657
0.0165618533777749
0.016584700887586
0.0201895662851173
0.0214810816833896
0.016878656619038
0.016704812151924
0.022079362538929
0.0220456210346579
0.021998556193036
0.015865375305041
0.0162156877044508
0.0156389082646029
0.0154916644628486
0.0155890853946235
0.0157365633957402
0.0153879693922485
0.0153339731290469
0.0154088887337361
0.0154714594210477
0.0153350501514776
0.0152995440884716
0.0153446986986863
0.0153777121826476
0.0152861661931514
0.015273968666602
0.0152932892666873
0.0153064037414627
0.0152937365313582
0.0152828675612359
0.0153033099530378
0.015316438196939
0.0153162468958962
0.0153031434809615
0.0153242249404877
0.0153407478462712
0.0153271744547318
0.0153102382417531
0.0153211113728771
0.0153354824331764
0.0153482701045826
0.0153350627219133
0.0153344336981364
0.0153473821346018
0.0153472590540594
0.0153342950823259
0.0153483052276008
0.0153647773778504
0.0153652408348332
0.015348565410643
0.0153494054976183
0.0153659023021885
0.0153657701781241
0.0153492442282392
0.0154324558997661
0.0154654769192256
0.0154769635354241
0.0154460544617423
0.0154555876547967
0.0154875265984299
0.0155003298828345
0.0154676646896009
0.0154691572369431
0.0155016047007105
0.0157733988160475
0.0156950100349423
0.0157307179602574
0.0158114946208297
0.015890457011442
0.0158349665771915
0.0159028667927352
0.0159264366882565
0.0162622822617986
0.0162731337459138
0.0163086315284666
0.0162986995904242
0.0167796439533822
0.016701439533239
0.0172311692916263
0.0173073952041244
0.0189908867801968
0.0185880774795767
0.0208903811961686
0.0447356237630784
0.0408516467677498
0.0203522538194012
0.0204726466682722
0.04292680844013
0.0451675833701299
0.020452493969459
0.0207328642269962
0.043091924353265
0.0436036483730554
0.0208269557560744
0.0209026292202905
0.0487601308834435
0.0441235467977404
0.0215277571078381
0.0223765510237885
0.0434264049893699
0.0379597031132456
0.0217035998907324
0.0214941745498002
0.0375249728325907
0.0350377956851817
0.0208190143266839
0.0203693215327142
0.0342743046574467
0.0366695957115757
0.0193387835987297
0.0180945860589695
0.0328621433606751
0.0303198564047834
0.017075086352569
0.0168933638205857
0.0330937898637823
0.0301159135970013
0.0166735891530483
0.016606472667187
0.027473883487771
0.0252845577261717
0.0165662982146929
0.0165722801087227
0.0242608575298529
0.0228042209989891
0.0165567369969608
0.0161626184844222
0.021693395895182
0.0205091353885823
0.0161125610705505
0.0160585731132799
0.0204441979029219
0.0159893137419046
0.0161027326623289
0.0161624080534842
0.0218309348510516
0.0227394008106477
0.0161456834541015
0.0160511165974298
0.0202821359934339
0.0153285029149598
0.0151295764639689
0.0151342030113709
0.0152866776937017
0.0159373029184762
0.019889162364591
0.0191135053955155
0.0156806248392168
0.0160321533208196
0.0194298399756824
0.0204127824219053
0.0164210410552707
0.0167965205970584
0.0211234483808812
0.0211289993209998
0.0166109730698359
0.0166570483960053
0.0217149871384557
0.0224661808488181
0.0170420295149552
0.0170284410289736
0.0231020099310564
0.0234134017825315
0.0169004048365361
0.0162609512939976
0.01590723528168
0.0227992392897311
0.0232482425299533
0.0243615300722135
0.0239095114738474
0.0165017098705542
0.0169711927164484
0.0159411340586205
0.0157492132488746
0.0161478437579561
0.0164222805200741
0.01558432592823
0.0155161127940987
0.0155452265597059
0.0156102244174695
0.0153993639887674
0.0153665709879622
0.0153649872201953
0.0153968462570948
0.0153064123780705
0.0152932201608569
0.0153141750701528
0.0153294077117764
0.0153290987466013
0.0153140501535589
0.0153357727673252
0.0153540897897943
0.0153412880988781
0.0153246559645884
0.0153362080959708
0.0153502105472942
0.015363744690186
0.0153510318911258
0.0153501793914631
0.0153628596001707
0.015362959354049
0.015350311321252
0.0153354124501359
0.0153485554568024
0.015363261760284
0.0153506728430973
0.0153499870843012
0.015362676806217
0.0153615349358004
0.0153491680460546
0.0153490149091625
0.0153613890671889
0.0153784483315974
0.0153628649697011
0.0153633480022752
0.0153792547766461
0.0153797128072261
0.0153640033487392
0.0153638607975843
0.0153795705897865
0.0153935956366204
0.0153777021811687
0.0154580722335498
0.0154884960766502
0.0155029377133011
0.0154709716269445
0.0154831917489875
0.0155159986631202
0.015517730901252
0.0154852049075734
0.0157075494553248
0.0157842160068494
0.0158347442305482
0.0157536681883998
0.0158594202608721
0.0159159373685328
0.0159578774417368
0.0159372545627594
0.0159737198893286
0.0159873797262814
0.0164762015866374
0.0164752692063318
0.0164973202935104
0.0164930604410587
0.0168575975569988
0.0167892654824346
0.0173279482553589
0.0173961002177143
0.0188461532886124
0.0185896344376958
0.0207452480843757
0.0475559932063864
0.0429463332423855
0.0203493182099866
0.0204103544142115
0.0462941574757775
0.0518016693833882
0.0207765287669271
0.0186518141763902
0.018872297287726
0.0189532881503561
0.0187449667276579
0.0208692679533633
0.0569565809894725
0.0502355031018974
0.0205184418818838
0.0207142179355371
0.0542604216509408
0.049310984387574
0.0204816355223603
0.0209224891019751
0.0479631039660403
0.0538519567136871
0.0213988422806702
0.0211512057932542
0.0550234695778063
0.050407543500334
0.0239039210234242
0.0251885525032957
0.0486081246792855
0.0415738599082577
0.02356297700759
0.0233915548593964
0.0412524116688164
0.0384753457540486
0.0221649360041597
0.0204629818569911
0.037066522230363
0.0432353446164459
0.0211375732520186
0.0197116597883495
0.0404605033681488
0.0449614237127495
0.0189695438137421
0.0183312746573169
0.040447869814004
0.0364601369087938
0.0173782931995971
0.0169622690335406
0.0339344009550605
0.0310291647049909
0.016796810100179
0.0166965867380743
0.0284661372299533
0.0261625700515872
0.0166157226856899
0.0162396810829165
0.024440964465127
0.0229167984864221
0.0161921080690998
0.0162060538937656
0.0230203790921271
0.0242599758234894
0.0164373587758052
0.017290684580708
0.0257025428055785
0.0273717525831822
0.0175711483472762
0.0174071289668655
0.0281530265664802
0.0301911294598959
0.0178917306333072
0.0173562205795673
0.0298181748021042
0.0259225463620952
0.0166496821784403
0.0170568109693847
0.0256918231587561
0.0238419954109052
0.0162328094335394
0.0159969004851571
0.0221041456110142
0.0241998350930313
0.0165848775907444
0.0162751564316513
0.0216278838043196
0.0221133312374106
0.0168607543392824
0.0161225254434575
0.0207024221249437
0.0200649631080174
0.0161555494563857
0.0163400918351615
0.0209189132620782
0.021810012681873
0.0167728496216511
0.0168872829541184
0.0228816623775968
0.0227297434547074
0.016735292686178
0.0169331364956103
0.0233680347948675
0.0244072013449196
0.017315355482606
0.0175526785676497
0.0248789708324908
0.0247793694262659
0.0174295181555283
0.0179608634988011
0.0263587456415577
0.025653075521056
0.0252087227903911
0.0171484799194208
0.0176987532118795
0.0183641069641769
0.0179113233313211
0.0268423837104066
0.0271591340309727
0.0279768229179286
0.018474647858286
0.0187927397515541
0.0300504114885163
0.029241314701322
0.0293390277195065
0.0189586439635592
0.0191192646406491
0.0185226785021595
0.0180689569782329
0.0178095710503853
0.0183822833981287
0.0165062734519523
0.016246931429457
0.0162311519249944
0.0164956195528105
0.0156226319319726
0.0155516921135295
0.0155862737396993
0.0156552339025018
0.0156314229252628
0.0155712587893693
0.0153900847106071
0.0154233897889433
0.0154167111995513
0.0153856544765452
0.015406336498121
0.0154375547095143
0.0153549027156609
0.015336286643497
0.0153484829369666
0.0153641770741389
0.0153784074523934
0.0153641835691298
0.0153630537967268
0.0153772702725584
0.0153766356437352
0.0153625777140215
0.015351223273723
0.015363989916617
0.0153799004521573
0.0153676220301415
0.0153669876621733
0.0153792074707937
0.0153780161177502
0.0153658743271216
0.0153660938948561
0.0153782158196921
0.0153939231683823
0.0153814553565732
0.015365476981865
0.0153783890651121
0.0153773911160798
0.0153643627784078
0.0153633429551171
0.0153759914140272
0.0153757911041897
0.0153631645198182
0.0153766991632758
0.015392363264376
0.0153935137884163
0.0153773781530138
0.0153778439373962
0.015393796953875
0.0154080432867351
0.0153914992406388
0.0153913412090518
0.0154077491132103
0.0155000112821573
0.0154696317939835
0.0154857171643734
0.015518204401298
0.0155317267894027
0.0154982482154813
0.0155007539707402
0.0155339210171476
0.0157957079803332
0.0157195075343086
0.0157754516121888
0.0158578037979057
0.0159418925672249
0.0158837826592329
0.0159081519491959
0.0159678829999991
0.0160163923936673
0.0160029560890187
0.0160324603161274
0.0160456701148741
0.0166005256371248
0.0166132953334623
0.0166273123542807
0.0166042509707933
0.0169405074326516
0.0168830495436493
0.0174439674047074
0.0175078260333113
0.0176406968956147
0.0175762124492594
0.0177207111631049
0.017785559913776
0.0190570447325797
0.0188614884001552
0.0209970207561235
0.0631650825007264
0.0549882684356418
0.0206617133703894
0.0209961508114666
0.0600605851238415
0.0609520803387745
0.02192409964274
0.0212993578518589
0.0612621666635724
0.0577908594260828
0.024285811044269
0.0265439401451125
0.0614376546787413
0.0556004457458839
0.0269141411779138
0.0271724379587937
0.0524328896610292
0.045221225650232
0.0250495800097569
0.0247412630474376
0.044533203902693
0.0484111551494265
0.0246849124712334
0.023379058635652
0.0480465457214784
0.0520202405992099
0.0235333917746857
0.0215929788155259
0.049548109183625
0.0445406300873712
0.0202412300673156
0.0197706863844828
0.0499025665145086
0.0448179664408743
0.0180832506537644
0.0176036082133676
0.040851722041472
0.0372194244018913
0.0172387386034603
0.0170313340378306
0.0347286007784396
0.0317216804345388
0.0167999636930096
0.016630067733083
0.0290517697467209
0.0266079866883918
0.0165286369399516
0.0170830554728851
0.0259844581455848
0.0268273296554306
0.0175982056249016
0.0176881638643922
0.0284739543005872
0.0307488203349335
0.01778531176291
0.0179665247398862
0.0334156686954604
0.0363865130074378
0.0181460992909854
0.0178524887997424
0.0312316566162545
0.033895847275696
0.0184599238697533
0.0179117762862621
0.0331144278657635
0.0285328381241607
0.0170647983690715
0.0178747245203324
0.0288583307576682
0.0313494858359625
0.0190609740817934
0.0185556542328244
0.0298940549172729
0.0268496792040799
0.0170026790621379
0.0174121636400052
0.0261313041388081
0.0285879721718906
0.0175200784828542
0.0173405010933821
0.0264786440471233
0.0247279416300823
0.0172421949627169
0.0171674356333116
0.0231080592094819
0.0219107021571124
0.016473991262157
0.0164038793175787
0.0215953838497167
0.022700244696629
0.0170323610296742
0.0171195015949815
0.0249691280713192
0.0245753368007441
0.0170065137911687
0.0169996019190263
0.0244680579608447
0.0252853325719823
0.0174848806520421
0.0184824960173922
0.0273959212356294
0.0270135382141144
0.0185066620284785
0.0184121670162199
0.0276293265805403
0.0281538012852253
0.0188875842065552
0.0191578104711541
0.0306979673878466
0.0332337702499952
0.0192723821887987
0.0190911022747115
0.0323784580628098
0.0314852180501732
0.0321717115670496
0.0190747146665381
0.0196332029531944
0.0183091255923196
0.0179638592017748
0.0163310733204537
0.016583417819237
0.0165303803172887
0.0162904644544451
0.0163327884505591
0.0165383541182874
0.015688116900937
0.0156203518183991
0.0155938828921273
0.0156485397633384
0.0154493614667506
0.015414399033735
0.0154272729969184
0.0154577114879415
0.0154724829284662
0.0154440178064897
0.01543556746833
0.0154613668922524
0.015449394604926
0.015424645455463
0.0153640508224795
0.0153784676926543
0.015395640611069
0.0153818269024443
0.0153815126673921
0.0153950325556447
0.0153938289287984
0.0153801916145009
0.0153791451478725
0.0153925734257189
0.0154095535991633
0.0153957962810813
0.0153839557342839
0.0153966261711827
0.015395335492339
0.0153827635392231
0.0153812287988629
0.0153936824793768
0.015409876999209
0.0153967144748085
0.0153967073740602
0.0154100307744412
0.0153938249186682
0.0153801549175669
0.0153785382669204
0.0153923247148313
0.0153906371093846
0.0153773332227805
0.0153771304527346
0.015390361630979
0.0154064261061225
0.0153903461109555
0.0153912008799552
0.015407917072252
0.0154226311840468
0.0154053625681976
0.0154054918995255
0.0154226132327842
0.0154222160220729
0.0154053128952698
0.0154814282801377
0.0155117933846666
0.0155336706782333
0.0155006615410914
0.0155136699864044
0.0155478458448228
0.015550535536847
0.0155167010870792
0.0157318650755375
0.0158077416027099
0.0158808485755367
0.0157973806159524
0.0158192793677631
0.0159037305896398
0.015993941862097
0.0159324334057352
0.0159566709253839
0.0160200592232418
0.0160747228371571
0.0160611650210631
0.0160905510469178
0.0161042872928972
0.016692037229321
0.0167256982238709
0.0167360159683786
0.0166912439317445
0.0170290893762962
0.016982363031724
0.0170818240636967
0.0171223097855499
0.0172175578186916
0.0171871762016397
0.0178735402955656
0.0179348637563116
0.01917555827443
0.0189943603725465
0.0211473574311294
0.0702432515974673
0.0603986928563797
0.0208321233946755
0.0212189932784457
0.0669233311313465
0.0695100083856053
0.0223679814656722
0.0214901404523012
0.0682505885575118
0.0663805981561199
0.0240756423411977
0.0262279530692679
0.0709298216310959
0.0621210213971678
0.0267323215770918
0.0250769499575744
0.0514311997219238
0.0468734122651805
0.0249636979033919
0.0246736239924274
0.0459163822567149
0.049262486614601
0.0246651556137178
0.0248123420983697
0.0546426886114909
0.0617074433817396
0.02521777186678
0.0234959588417479
0.056460102928029
0.0631055670579058
0.0244009582898024
0.0228027918637577
0.0608858935967785
0.0499665658032219
0.0209605578200275
0.0209252878477636
0.0554200068680489
0.049212404999396
0.0187278966637124
0.0181306853431387
0.0466024688617786
0.0420831045557203
0.0176832553340273
0.0173213394377079
0.0381661354357245
0.0397615934627724
0.0179390059053372
0.0176398224857082
0.0358913878938282
0.0324587654810605
0.0175110034632239
0.0174484928603078
0.0295906197895598
0.0173866644746298
0.017327660134579
0.0174199785546651
0.0166937172129608
0.015655445467289
0.0156108835772933
0.0170079284525559
0.0182611567908222
0.0309212540110241
0.0365747333181378
0.0182087782372526
0.017959689176428
0.0337004388968204
0.0308711953335164
0.0177297019519666
0.0177674057780616
0.0301772468172967
0.0278814508017747
0.0172903536823144
0.0178464117308504
0.0295058950875115
0.027364580087909
0.0175189987867411
0.0172690577046407
0.0255878273651584
0.0242205478067806
0.0171073707382684
0.0165801596720911
0.0233007632446524
0.024567060538272
0.0167621975233441
0.0170011131631754
0.0260907639725492
0.0279197339991483
0.0175148096359495
0.0173177755882766
0.0260020345550303
0.0244034025545334
0.0171741278825727
0.0171455789399941
0.016207131345113
0.0170365025568808
0.0246000195110732
0.0234933739886593
0.0171586167999974
0.0170493997570249
0.017242714640119
0.0165301570815273
0.0174308209461357
0.0272054064563836
0.0288759026130159
0.0180121494969796
0.017341331530781
0.0175979023840065
0.0180281999650244
0.0327387581539419
0.0299006202241759
0.0175941452278072
0.0182101151348632
0.0320386372486414
0.0340151547108593
0.0191417255539918
0.0197438803530125
0.0310421442919502
0.0312454256828395