/*--------------------------------*- C++ -*----------------------------------*\
| =========                 |                                                 |
| \\      /  F ield         | OpenFOAM: The Open Source CFD Toolbox           |
|  \\    /   O peration     | Version:  2312                                  |
|   \\  /    A nd           | Website:  www.openfoam.com                      |
|    \\/     M anipulation  |                                                 |
\*---------------------------------------------------------------------------*/
FoamFile
{
    version     2.0;
    format      ascii;
    arch        "LSB;label=32;scalar=64";
    class       volScalarField;
    location    "500";
    object      omega;
}
// * * * * * * * * * * * * * * * * * * * * * * * * * * * * * * * * * * * * * //

dimensions      [0 0 -1 0 0 0 0];

internalField   nonuniform List<scalar> 
209453
(
3.61255889259582
8.63310643700085
29.5166658707578
27.1834756706345
7.67652081722431
7.41526698068586
26.2353587947692
26.541415103244
28.1535698551404
5.81491327914106
5.56821681359332
2.92980106257017
2.73374470216086
2.89096806969211
3.05226107057081
6.10727599166352
28.1690076722248
29.1578474266542
6.0838921167667
6.23190652701409
31.0734398345568
29.9401849783901
6.45918370685164
3.24842242532025
3.05275445383195
3.30383284064016
3.49598933167258
7.2568150208253
31.9399805420574
33.2848769088497
6.90154914445306
8.88691708896842
38.3302961779513
37.0207431597235
9.45057463689817
10.0944517990702
35.9644210446121
32.1667114596389
9.11638760500222
10.1078601535564
35.97667274668
34.737656188558
10.258812086428
9.78416920942906
31.0071792214297
25.6635397912338
8.1370763015994
5.59073058267323
20.373205829152
16.8696838565527
3.55626507853065
2.38845662986792
14.4795560518275
14.05287273926
14.3078949835061
1.08329442073531
1.0991218995637
1.02229389496733
1.00389352836938
1.00291980512654
1.00200487125812
1.00596397521541
1.01295267996439
1.02853966747993
1.0131924607569
2.48489661940233
17.5239302689503
15.8854145977247
2.40820577038229
1.15514955378501
1.81381424101929
16.0655070957404
14.4258419485602
13.9025837841618
15.3789557210406
1.15330560845245
1.15752344221021
3.88394536791226
18.7305171731195
20.1815821680004
3.92603886784965
1.33465768729278
1.38299069164433
1.3907158913762
1.33772979479449
3.74285623570867
4.01207997954408
4.02960755246341
3.75332802409929
2.63634335263999
2.66385201158109
1.39962127045723
1.34259900861055
1.11177415436745
1.14341632188955
1.41875150909235
1.28926437753843
1.40502043520838
1.50916754966428
1.54044797608273
1.51007272292001
1.65395213444197
1.69003604627746
2.1027672817769
1.89029054684715
3.87689563152735
4.34573127638354
5.64221454899995
5.47292696917996
11.4917597200522
48.3313309925645
46.1553545770811
11.5410017873841
11.8617621118403
44.4668467580346
39.9873362646175
10.7005596908728
11.4960821128288
41.0197353258236
45.5608683575479
11.5831004966292
11.982725473187
47.0159392596138
52.2142117746337
11.7298216492345
13.2961952626334
61.2224738398119
77.0487853619449
20.7189441295742
16.2124858397209
58.8086220070252
50.9766302899015
13.4465660686806
13.8765418401664
49.7389044925394
43.6194414171385
11.7499990854411
10.7300979269453
39.6233884471038
37.1715242332687
10.4260557431919
8.22693574190752
31.4279141410767
30.0127651229293
8.00303120140994
7.76050831292149
27.6901655563435
23.8655033061773
6.73846389412208
7.3134307471154
24.5630185063112
20.4120826560141
6.11813603267452
3.83063508352095
16.1769659414165
13.6650910491028
2.46336925756894
1.0366480515055
1.00859606943517
13.8942970327382
13.2922694999404
12.1490812926691
12.0440114601288
1.00303920887873
1.00997565814053
1.00309164706047
1.00125273391749
1.00310036692773
1.00943815144025
1.0116876748067
1.52894105308679
1.47064928266414
2.18602993197395
13.1957272813122
12.7852560561692
1.78347043940523
1.00577623682942
1.00165578222526
11.8553295043011
11.9247127070061
13.2253403751852
13.9077558016387
1.00409702992677
1.00982735231615
1.00100897855714
1.00057684656222
1.00020908276236
1.00039010390795
1.00090459476001
1.00038140000143
1.00067101462455
1.00296132043042
1.00119236347917
1.0004046901166
1.00033971735806
1.00050574725805
1.00009489137871
1.00006861987942
1.00014854151927
1.00026911474817
1.00064418949981
1.00032595691439
1.00065574223929
1.00258280227047
1.07167389934086
1.03808555504157
1.00431893379835
1.00821185398279
1.03104437816465
1.0217390986455
1.03779886093454
1.04980978016209
1.07345459778647
1.06270241190995
1.1727332165384
1.21254964156661
1.25390163379199
1.21490293273334
1.2666127078833
1.30702407272919
1.39501251336231
1.34156092690039
1.4458627012726
1.50870969782865
2.54465469228452
2.30016782613245
2.5557693306878
2.71787481171196
5.71590110635424
5.55451787940682
5.54909599777725
5.70342408700755
11.2136021156879
12.786562687639
14.4811404925172
11.8638604812372
11.4759595641773
13.743121866358
20.4610216427226
88.6880611936126
66.36161263382
16.2622703320517
13.5494867922397
56.9355144528662
59.4270259095947
14.0919625342609
18.8843575712215
61.7985278984128
54.0942633785576
16.5216346335448
12.1413744497358
40.7914663384681
35.3104215185133
9.4371784339208
8.54452764770903
32.8564189470337
30.8749775495657
7.960647102147
7.93471229531508
30.1851024827417
29.6301703606884
7.96657026705502
7.96776614321852
28.1143297715405
32.9196557471649
8.67877757086875
8.16524836943024
28.182628684665
28.18636668286
7.37812579911283
5.40113424853536
21.1722675559345
16.2155224880929
3.59862824702175
2.60657537305915
15.1428610684804
15.9003715494026
3.60414955501079
2.20298953366702
13.4830803236967
13.8094188227836
2.07577204190773
1.01102756015403
1.00366853959173
14.9601037089983
13.9559873792293
12.8202285978609
13.6187197126837
1.00311230516521
1.00857578155202
1.00047680007139
1.00020525688117
1.00020587721605
1.00046325139529
1.00048980070512
1.00019272491378
1.00018375467563
1.00055917557688
1.00060362327161
1.00009564532544
1.00001959921786
1.00001650702303
1.00031421076388
1.00037665902642
1.00171155095858
1.0013216341538
1.00691501556192
1.0113580142488
1.03466709547949
1.02455548424366
1.03506602567188
1.045181214115
1.0620748395358
1.05513553739144
1.05150420686285
1.05814306745667
1.08483375306232
1.07747402993592
1.09250118235349
1.10495474173133
1.14381003190197
1.12916832810083
1.17699641432433
1.19471599782713
1.25940218970021
1.23435371993809
1.26843624265076
1.29882973316767
1.55058912184331
1.48402104974681
1.50734896408654
1.57499820680664
2.59490332513826
2.3608064735058
2.43235033208894
2.65336585435232
2.85983238178346
2.73181752186227
5.65734198221376
5.82176024555386
5.80429277206054
5.63012672599892
6.28560926735839
6.28960133374914
11.7605663261014
14.2068873940551
21.1364136455666
91.9600400130472
69.5508593565338
17.1315931122737
19.8717991841769
26.60191349214
104.23411114377
77.2144905631056
66.8711502942331
15.6870057549529
17.7263716555291
76.8144670433591
88.3960942972748
123.369456545507
29.6891500410982
21.2159242116782
17.0689388158456
17.093358183532
17.1681243035004
17.1033231399197
21.6323510844502
29.1756058908157
130.140882973893
94.0039997739934
89.0021123399593
21.4522517502516
21.062430606513
91.258141356935
90.7907917933129
21.2140471227151
21.0858256349617
83.5113355372793
19.9930280337626
10.9754239371263
18.6376539954647
69.3339920432389
52.0205773689881
16.2910838818354
14.6977054463063
44.7552340177575
35.4434910921011
10.1438264380167
8.2367264082657
32.0906323109244
34.785213976061
8.50685718919733
8.42608384029425
33.9524321327795
33.8926134321682
8.48405547289033
8.62009443406181
34.342976591897
43.7804790564779
9.61467436547276
9.9622105119352
40.1162382466938
34.0042849042506
9.07651164515307
6.66206815924403
29.744802527802
25.3125275249441
5.90807651085524
5.48424813849272
24.8844052014784
18.531860331397
3.65189006464467
4.7943269431433
19.0576142542725
17.7774182061279
3.80013607063337
3.29541784341125
15.7710681830338
13.4752286273995
1.81005007914703
1.45465488375972
12.5243370711737
12.4917327896697
1.42252536298802
1.00767904534566
12.8051982643401
13.6019591575119
1.00275269732317
1.00038026653224
1.00083722082662
1.00058861538444
1.00021110111015
1.00018462614801
1.00065282798192
1.00078916078749
1.00015313740532
1.00009400438956
1.0023609698295
1.00065820544924
1.00039894129537
0.999971028430268
0.999958870599082
1.0015973601482
1.00148121681187
1.0064430726972
1.01643588821664
1.03616067772676
1.01669422455774
1.00218088718472
1.00437050124509
1.09088029839567
1.05112506914637
1.11516419156729
1.16417891856277
1.19407927133737
1.14056842958909
1.17634615034282
1.23064044986054
1.076677386891
1.06425430243468
1.09448819424175
1.10756005166465
1.09032754199619
1.08191725905017
1.11796937862402
1.12663842816282
1.12028259140921
1.11171398288887
1.15794440577164
1.16825207742002
1.23212255428433
1.21423331785835
1.25003052631746
1.27499509226152
1.30311956966358
1.27127926137352
1.31598819585263
1.35623661706054
1.34832485320677
1.30882467972823
1.52775735642871
1.598808572795
1.62273328949708
1.55539776640189
1.60399960305992
1.68085079659397
2.69889172324501
2.4903852060273
2.99046395907734
3.01908987662627
5.99794571371754
5.829130000093
6.56077494702341
6.47248813574824
8.59189669024274
8.9690420276921
16.2943121023878
13.5616212592986
8.1612657706945
6.72587996537597
4.5784459413426
2.67616154735183
2.30532586990444
2.32105741969879
2.35578744660934
2.33167236553095
2.28514744151698
2.92841913770142
2.89331658934978
4.68866358070867
6.73557488132944
27.255678589143
23.2918998519781
5.82684143251499
4.52302086012709
20.7465567534838
19.2692098810436
4.16665048991012
2.23696678143781
15.2193407516426
14.3935313289957
2.06091966178255
2.0068955778857
14.3146755407127
13.4181559221256
1.77339869721036
3.19506592629974
15.63131455985
13.7467362640098
2.01509139524738
1.01091146779122
1.00331599195859
14.9114810486457
13.9176093704675
13.1720224608315
1.01404710008028
1.00857464432351
13.8527955767425
11.8119535361302
11.687494619281
1.01081173415127
1.00693928266753
1.00032302468909
1.00083155044608
1.000800170989
1.00030194655747
1.00047663412505
1.00135243294777
1.00233767002428
1.29709176654274
1.34588167340543
2.17884256744956
13.4147707165958
12.198992118522
1.62450425766402
1.93144915592592
12.3458474516192
11.8566927361474
12.0248778336686
1.00250207092206
1.00901868421983
1.00233819777536
1.00054543536863
1.00177148857574
1.00909111298357
1.01909800792919
1.00180882664286
1.0989372174881
14.2885422165239
13.9182949693523
1.10836834212468
2.52324747202311
14.3626949434314
14.3825706727073
16.1561027579304
1.65862111528038
2.34043790061983
1.1616062412336
1.15075698929365
1.18521835332896
1.16843092057763
13.8977378657916
15.3720833212718
15.4957260107684
13.6983148232228
4.46607945535747
3.90306529183965
19.1208710098492
17.7117535289251
16.7646048025019
3.54541678553096
5.48879096429176
19.9951232711914
22.9946974237355
26.1277091080808
6.04556836287199
5.71513807757388
4.21561632042237
3.60829771286339
1.36611785730897
1.47479671597017
1.48601952767192
1.37388989967566
2.49398582668135
2.72827722435562
4.22169395203109
3.61824000858193
5.69176381499817
5.70821437550311
25.5114712557947
29.561523783702
28.019053607714
5.72407567220728
5.83289925001492
26.4050043159803
26.0435171352557
7.51018400582059
7.73331717700819
26.9078722144478
27.8524077295959
28.7695421544458
5.93017087526784
6.28415859178247
3.05095226991156
2.69641690679701
1.41536156022665
1.53805572751714
1.5705515663179
1.49592782185832
1.21715904522796
1.2705891345467
1.31988692329921
1.26775613060689
1.133360438157
1.14548313557427
1.20114649511965
1.18870055718824
1.16871790988941
1.18161361956146
1.25431159309434
1.23325664011908
1.27813788038334
1.30652845001003
1.28011049370059
1.25411927000116
1.30732544889798
1.34283585671265
1.33137537629157
1.29701505796226
1.35046149042872
1.39965177187263
1.41966612699818
1.36597743062996
1.35677719123444
1.40880818880009
1.65423826498397
1.57507126809311
1.59637554250811
1.67400644245851
1.7087451212894
1.63260445196272
1.66323039093707
1.73181621060518
1.73411718654786
1.66239766849189
2.49223133996691
2.6769079698671
2.75327424567252
2.56744139506652
2.99975932771661
3.05365867016775
3.07453344425697
3.10663086394938
3.449368959319
3.08103868652781
3.03729497940517
3.0084637773262
2.98471286251448
3.03056534000553
2.71292576298838
2.51614934518414
2.48494942012458
2.68058004887889
1.70080183443705
1.62580591687109
1.6295502057714
1.70195258958209
1.73217373332035
1.78702091026372
1.83583978382494
1.84951981004887
1.85518266849343
1.8861103206436
1.88235886711262
1.88885572922388
1.89008776030762
1.93509034771316
1.9257477205183
2.0127805054916
2.20781731655069
2.21737736037453
2.51732588567886
3.14144909984258
3.38988702851263
1.80525695500177
1.84882375856845
3.86842219239806
19.2766367389057
17.9429732519088
3.35956667514347
2.71786996162083
16.3471215501986
16.8166060261159
3.21581307499323
2.28039097301476
15.2089532291154
19.087287151939
4.18715788104145
3.63572672909816
17.5225469998948
17.8778435165238
3.98694430355544
2.90015216811961
15.8586387334904
16.8111106795553
3.91391578581638
2.81903696599835
14.2387128116487
15.3744200079981
3.36647164566657
4.43056736987347
17.8733419364113
23.168009441954
7.02894141248834
6.12982315721326
23.0536101420644
25.491777855091
8.16561287179764
8.72427082506893
26.3664817296465
31.9313859901405
9.64292018801226
8.62509320078732
29.246746418436
29.6531487916321
30.7214313192109
6.02688513672777
6.56763867174204
3.18559886141028
2.83058138971202
3.04473626087463
3.3994645098194
1.66912003138993
1.6063887002964
1.79703925476448
1.87537924510473
1.39713981415394
1.34273777038327
1.44642274862188
1.49899391345249
1.2781943252952
1.26073312631217
1.31303532222995
1.33787706715503
1.30649931543444
1.27816738044551
1.34014030054659
1.37863609439468
1.37374211354885
1.33520853072413
1.39875956144503
1.45453034788576
1.41737586277117
1.36447729244459
1.38909528537204
1.44382990209651
1.483629676137
1.42820661638077
1.41884357987441
1.46529380371766
1.46947520550692
1.42115227251655
1.43820618130601
1.48613449883146
1.47860958509386
1.42424285732539
1.41737716641332
1.46455136672027
1.46636304529427
1.4160114387292
1.62859215714209
1.69822422988764
1.73313589814965
1.66563896372345
1.67588414613673
1.74675432022245
1.77667032638095
1.70350792696567
1.7036369613585
1.77209664497356
2.69253903030566
2.51172592982443
2.62409242796093
2.80143350275108
3.11016531064143
3.04458212129997
3.34427206114876
3.24008931018177
4.60269846911828
4.95550240453998
5.01232008155159
4.66891974084426
6.55711590377896
6.65054954961984
9.15695003673737
8.73217332908999
15.6552518556056
15.6327875812435
26.2905977069528
114.895935508295
88.2567536267523
21.0919110852069
21.0686706284986
85.6989550730733
84.7814682899354
20.5340729122995
20.8428594584591
93.7483071115065
94.9373854497863
20.9016914732299
21.0195847177256
98.8317833855932
81.9998658773333
21.5186622603428
23.3317674167928
75.4337550030317
68.3831972466408
20.7657178662356
20.0075097156986
65.6373359909209
60.9855643118564
18.3055173491784
16.8361376004222
55.1141418875703
49.3563590802406
14.0794682080523
11.4660259249831
41.3975882246257
36.8762415028098
9.46278376964149
9.79433938915442
45.539012315436
43.7663494088499
9.44700399102994
9.42713999088566
42.693520047946
42.9400434519306
9.478908909194
9.62196378455621
42.3296342974179
43.7506674808907
9.73717964616627
6.953268987586
37.852526657418
33.4001327357353
6.88048470410191
6.7219538541945
33.4565800472483
6.05881579510867
6.74108755884123
6.93142007893245
33.3620260569978
27.4246295215706
6.41166869615962
6.33434506109231
23.4703235664907
2.40390099938568
1.15090784366318
1.12294415708542
1.92929204347143
5.41140057858571
20.936912361475
19.6541766721432
4.06041768512535
5.85334556019115
21.5027966206224
29.2664558466654
7.77961559005971
9.11615410636085
30.0886815418052
27.7962932443226
8.0771185402013
7.87811565599853
29.0675364860027
34.4509243185102
9.92556379883236
10.024637408583
35.6447257634207
32.1992611119759
9.23902367854988
6.64817519222711
6.06280413335957
31.6715948437942
30.6283533150836
34.2027684208143
35.4275508625182
8.06819362258154
8.93185670725344
4.0102730632555
3.56779532633859
5.15556377659484
5.79261798717867
2.2400488520241
2.14017859853292
2.21983531848779
2.32187827021096
1.56270150417841
1.50501173552037
1.50752897309209
1.56307872783971
1.33624897766259
1.31247599374109
1.38345045590876
1.41947684521449
1.41578581331188
1.37994283583439
1.45888875312405
1.51453980179393
1.46783075495014
1.41032814828496
1.4468530820782
1.50213375306239
1.55017340137511
1.49758111862495
1.48130086772355
1.53267003554716
1.54308764943995
1.49136158029548
1.44634309888531
1.49688893964387
1.54851582874232
1.49773061745333
1.47314498797325
1.52867573749462
1.508864128379
1.46190337943173
1.46439492281733
1.51167140279134
1.52891549963582
1.48380709481221
1.46637640696463
1.51948559111736
1.50541446166815
1.45625527520085
1.45602000984513
1.50368202101456
1.53942845155737
1.49156242997611
1.69818331270819
1.7693934078262
1.78493589951338
1.71514856153771
1.74056767515023
1.82096128106377
1.8100433682286
1.74150763557751
2.53164880738047
2.71340689170849
2.85886678755601
2.679681085894
3.10249286307239
3.17173585538609
3.30141390081714
3.43755816604633
3.54079141499103
3.37214393349268
5.30364997540039
5.61594772381515
5.61382471593915
5.2910115953189
6.69111173173511
6.77533964976784
9.30582193807338
8.85123663493422
14.7914593914152
15.2934896202341
25.1240114900104
105.898119786293
82.6198847479786
20.8161983989296
20.8180942466001
83.436924771577
107.633065419379
24.9079908743419
15.2634266335679
14.6512762263151
14.7687560983248
15.400561994937
25.0506342865164
111.643163838687
86.7222379575023
21.0468853627437
20.8395555285166
92.8277855861367
87.676712953887
20.412607466291
21.2649721915745
99.244107791034
106.513472290702
22.4302677762967
21.5840227878032
106.995330799334
99.5975193065784
27.9232454691929
31.5487148333874
101.192700921344
88.7994188263545
26.9013665514178
26.2381603798499
86.5149135024773
77.5233662276418
22.6323278199464
17.064735703004
63.9042013831631
77.3780259825146
19.1360676816484
15.0284031819796
53.5948106185225
55.2429580321568
13.5412445891496
12.3374421955644
51.4896463781998
47.947688617645
10.6399351583777
9.89867331202363
46.1260515476559
43.9793758997331
9.68898707569759
9.62621173191082
42.4235331996994
41.6836683297723
9.58399800817424
6.92762285223084
36.0995554067364
36.5498740925184
6.90319489775269
6.78464404991844
32.6797208773286
33.155475512061
7.36962012039697
9.26073868662793
31.659163246068
36.7876660315601
9.90349834142202
8.8840763583336
36.7266045168216
37.7325112387757
10.0603022290882
7.92427115746877
28.8091187663555
21.0706834831224
4.92411799380999
5.70560617715118
21.5426092643906
19.3480967437034
3.98808450511471
3.51051261263496
18.4822617285655
25.9559035647653
6.31177015065143
5.73668003490852
21.8901999597578
27.8880499999593
8.48265910040311
5.79252401935274
26.6157951625821
25.7941205796998
6.31563070246188
7.01526770767407
30.0669386084049
34.8953277773811
9.25739157883168
9.27074532038201
34.9079562213608
30.4333158937683
8.29793064534451
8.70163759419406
31.7655618567944
37.7308204239973
10.7855915627088
11.780245879046
39.9681640434422
37.9867885443701
10.9491363989656
12.8382792372687
48.6185430126695
42.8813867390328
44.6067578542823
10.5317430556288
11.6122982174172
14.3902874801745
14.0411675385678
58.5825889493478
53.7001242349067
59.2454090963735
15.0334031320076
16.2769721731296
66.6256594774217
64.4748160403689
77.3633592173788
19.4725757571976
17.7024963368773
14.9829379852406
14.5321361341194
13.2889485107555
14.400453224328
6.01144175608892
5.42215919187936
5.4029516793412
6.01772137888557
2.36347307880069
2.24222238252569
2.36738637898045
2.50089856134832
2.41865605306061
2.30903809949304
1.58945755534402
1.66097359255418
1.64706456545602
1.58183071991506
1.67514922625676
1.75439849230048
1.52920882448377
1.47397930839465
1.52612563629847
1.57644889496191
1.64874122423155
1.6013768230134
1.57648856654762
1.62943857034624
1.63257809343937
1.58042206898193
1.52413636073597
1.5775108815477
1.65862359973618
1.60193064861411
1.56052151953766
1.61602820774245
1.58782705331943
1.53648732836282
1.54640529177768
1.59944853047291
1.65750508136683
1.59889359696902
1.54468111347855
1.59851566389274
1.57149548695166
1.51334901618588
1.49963306334244
1.54985971632218
1.55112096206467
1.50274464212534
1.52518975380042
1.57048367627522
1.55900454495934
1.50487875483389
1.49182491917959
1.54513078940271
1.58261895549311
1.52474280203125
1.52460081767264
1.57439944300001
1.80576843931783
1.72865100245491
1.75249101680956
1.82683509653238
1.86541966820513
1.77790343645979
1.77979885958107
1.85458017290698
2.73890135255173
2.55504634601187
2.73800475737193
2.92005633345892
3.24571726128282
3.16544921555909
3.2318818266909
3.31818303447207
3.43233220375118
3.61913222143025
3.700750343577
3.50472624984631
5.64822103689214
5.99085525811845
5.95918935578396
5.59037956745999
6.8815107830144
6.94353238072562
9.55152446964049
9.08878964166614
9.44254700096429
9.8787279602593
10.2705713366761
9.8707936128191
14.9961674036926
15.6480667213954
25.3609158482927
117.204847443855
91.1784926435275
21.4438192009383
21.4055106864646
98.854168981725
114.896329606304
23.6083174948945
21.8740093119633
115.57050189392
115.700653888436
28.8762107224795
36.5334334063405
149.051541078214
151.265687559269
38.0611692203429
39.0633355699424
135.697132860394
117.762570028925
32.9767930615465
31.8374020960802
115.954097363125
121.693273184816
31.5731045026892
26.8720809337653
109.628995399825
108.367503554613
27.3564215477181
20.5662268530568
79.2474250467197
56.1076080098835
16.6003205132951
15.1657888119403
58.1971188938541
53.6692823256224
12.3424098990473
11.1830327611678
51.0210001065971
48.4994989303196
10.3978236364848
8.81152935919631
42.6660826015196
40.9661462840013
8.19542442985701
7.78205230795369
39.9073984654479
37.9271947097362
7.59417227529259
9.18461006217255
38.0092357333116
44.3593362691025
10.6526780463665
10.7409535806274
46.8537151746525
46.8296298010257
10.7464976590794
11.1365702460307
48.1426837984999
49.9342793038026
11.4946427934852
9.66123873569828
38.2801586601646
39.8691877398274
11.1638290129409
9.39351253545278
30.6138550166101
23.3434139972033
6.06108081230781
7.4575816283261
25.7981364163183
33.8685633990399
11.050693171993
10.1179426928528
31.5706274904758
27.475476268423
7.20019199961007
9.3460452808312
35.3433513175048
44.8083229001837
10.3955427651578
10.0171112462058
44.2322951417176
44.387712811528
10.1002803039963
10.1138796263554
40.1738255320824
35.5525525127097
7.37335423440821
7.11850825349159
33.4616956250677
40.475546512794
10.3346271970171
10.1848660625664
44.6249361557366
35.7166123353072
9.30384475379403
8.85583060819059
32.3139548487538
35.7559178105682
10.3501899884849
14.8265400854959
46.5988813483471
51.2053347707562
15.3872850582279
14.8733305536116
60.1863624392445
67.9634853153852
17.3409451534548
18.3558545155496
75.3145687969631
79.1033241180252
18.5805758686767
17.3200708887951
71.7637485050395
74.7398561701436
91.1053179545737
19.7596198208445
19.9268093027073
14.0197913820838
13.7789415922862
5.71255304627956
6.3229307170368
6.15086049306041
5.58097201854559
5.76857085237162
6.25493481387043
2.66760134602846
2.52175312096064
2.41573173520807
2.52573773798353
1.78768521449679
1.69949613185466
1.76469862474576
1.84504855981795
1.93649144838412
1.8635010939042
1.84355475329283
1.91191883535325
1.87415689250361
1.81574211722313
1.6313031255116
1.67802084017334
1.81291500283768
1.75756639725001
1.71296586892661
1.759418561771
1.73678873166329
1.67898344172076
1.66803271680152
1.72624088447215
1.85445750756631
1.78708282236974
1.69554833390077
1.76008892955039
1.69761558927855
1.6377710541296
1.59663023613808
1.65154519763089
1.73014344524791
1.67342794640321
1.65028997887439
1.72227759581731
1.64805845181735
1.58905908108005
1.55012216257937
1.61341216502757
1.58682613105831
1.53289353966441
1.5355097581084
1.587114974208
1.60994616049714
1.56216412521895
1.53995020429411
1.59710963460072
1.63352877804302
1.57396829345439
1.55635166352455
1.617364198309
1.60842251855221
1.55629045930019
1.75899553216388
1.84082786651201
1.87122713869677
1.79085565531313
1.816594280108
1.91055994064862
1.9012858483294
1.82013877278435
2.58225841520397
2.76709961750473
2.98324919143099
2.79986582965491
2.86282498112916
3.04753246581765
3.40054791123918
3.30228515082803
3.37498096354966
3.48014219918661
3.57241504978422
3.78364802781287
3.8720359172295
3.64991235109121
5.88216848266638
6.26341394598786
6.22358020031464
5.81484832622187
7.12447036080275
7.13790957737318
7.33043475591088
7.40956992341561
7.71830997703134
7.55198723167677
10.7114998201508
10.3504002809855
15.304190254144
15.9826557092988
25.8080125034184
123.480878429999
96.0502454174069
21.984759292896
21.8971246811721
105.368197702563
123.771133631616
24.517366188497
22.2668320288417
122.725917883722
121.818321655953
28.2259410874888
35.2547471276907
154.050088996738
147.74024358603
37.2695814394647
32.6684060818905
119.000174746485
126.556586004325
32.5194115604777
31.5046062105121
126.707634996201
118.335809298707
31.3263196264039
31.6616254074093
119.703613221407
126.786231126435
32.7260418802595
27.0900995204704
112.607295783295
124.733906115353
29.7118873223325
24.502928999986
91.4750450283171
59.3694714840337
18.9732886645114
17.5614043364
61.4647253224255
56.4839392610056
14.026974208302
12.2397348863867
49.6621224699638
47.0467823318557
10.7823331878537
9.65094937785721
44.7167906045975
52.5008256052975
10.9596510719508
10.3263137051432
50.1554065416929
48.3145865315076
10.101961642775
10.0781997942503
47.4423772732826
9.66041378811167
9.02038527411311
9.10140544069964
5.84992281574043
2.51045283567198
2.38361743162786
6.83754854489895
10.8838633242541
41.3649935213715
50.8189801431437
11.8599621207518
11.3730908380969
48.5659948944661
46.2334265242525
10.7779325483111
11.1559358360291
46.0251616993425
38.7614057650834
9.3286129557096
12.1745167236565
44.3224453293351
42.7780900933444
11.110368219887
10.474520502788
43.0409245816399
44.1921509200284
10.2544818273401
7.49852114046858
39.0512469939367
37.8071852671615
7.85013801100987
8.45589407659258
37.6630602438058
44.6016738905728
10.4948498513656
10.0792768136677
44.2607511936875
44.738623994996
9.87695989312275
9.74490852412374
4.63040543600458
8.36472778653835
34.8437955446158
34.3530162662858
9.4437756549144
8.72214404255827
9.14892405184069
5.52465172965621
9.00616617622828
36.0204205153801
37.5818577885196
10.5267230592631
9.12817504847934
9.89745203680186
11.8654001319348
48.1545474928666
40.5280685018939
10.3013353460052
13.454490896626
46.9247370674398
51.9994533471996
16.248924015206
17.2846742807346
46.7509180218017
47.1060072955709
18.5086112871076
19.1609982878617
46.7249192275615
46.7884164025664
19.7904284712416
21.9087234640617
49.1062029876701
53.1177320496
21.890614287103
23.661486952616
61.9313990771819
76.5159028680595
25.6962530374276
28.9671591683374
97.1353076833195
102.146448756462
29.9200926626193
28.9050616362254
93.3554657708078
104.510101182572
121.827356015262
37.5677003872872
34.0632160424926
21.3331322234482
21.386433868475
15.8683375648362
14.7281867808798
10.0128772797769
9.65452291751261
8.7986353081689
9.42968541967687
7.92431451205448
7.36044248234559
5.62517971706892
6.01263208695597
4.41728788407885
4.23459183870482
4.22528643073326
4.39432618882736
4.32501633903205
4.149377875279
3.99687635886185
4.18041504579965
4.11700561077396
3.90303942179054
4.0929314436563
4.31565656947591
4.50197612142071
4.24756978458541
4.19926299501926
4.4455231481967
4.38165345740161
4.11880333992509
3.94808887560828
4.1807585945953
3.83138910703618
3.62693438431036
3.23924799913553
3.41311184101066
2.89939522307862
2.75801402202937
2.4382832383612
2.55106575886762
2.25388567649282
2.16844118049129
2.01572226584419
2.11972971708698
1.91942120407822
1.83665606420471
1.73056249147998
1.8171835125364
1.73243798357173
1.66806606792249
1.63304187690418
1.70086849978791
1.70805667754572
1.6481420261402
1.62887585086161
1.69633249286003
1.67833303567026
1.60874796798621
1.61318199551677
1.6719454405753
1.9013476843768
1.8143544730236
1.86507818837587
1.95889900178938
2.00107690975745
1.89559193605338
1.90536751484703
1.99832390007016
2.82206857469427
2.6373625289674
2.92634091817001
3.11136180127633
3.17430113012701
2.98865758614946
3.45115622703624
3.56902341838055
3.65381406222617
3.52808154726559
3.96286761997026
3.72606158406831
3.80721343172009
4.05894758647205
6.50021821732309
6.09836743464637
6.0246845693238
6.45388421740781
6.70796805461328
6.30406815579232
6.21581131290213
6.65642668161091
6.89708670510974
6.48432250107774
6.37406000445653
6.83966113695922
7.79056551001122
8.02377675421161
10.8626509087486
11.1589635190843
16.4091445236611
15.7044338297131
26.1019321092974
28.9035429067505
136.379636744911
107.980255611271
114.297979847496
23.4515765903829
25.0672617079309
133.306804005717
130.507297799917
22.7426669384918
27.9313731780806
129.272606387987
162.681371221215
34.9507363316096
36.9327154845337
153.005174621108
121.51978476109
33.1494980499544
33.9046311769142
129.29372717808
142.924491392825
36.7884441886589
37.2525009699532
139.443379362675
163.334427712123
47.5779353927261
32.7016150221739
147.523028525213
147.166832866936
35.7626085307918
36.1862065383808
114.643340256811
97.6216871472991
27.2552339343194
25.9975361511904
82.1527126280798
60.2146348950647
22.5808037278815
20.2895544363492
64.281583068189
59.4747372720586
16.2598364773833
13.9886934531045
52.6427396541233
61.9208087272823
15.1796772997833
13.3726963894999
58.3494941771251
55.2424018149556
11.9581337457602
12.2037618445571
52.0953956779939
54.6225576713365
12.9292891214929
11.1974847219618
41.1542634267895
43.7582678357575
13.053342085452
12.7964046026398