/*--------------------------------*- C++ -*----------------------------------*\
| =========                 |                                                 |
| \\      /  F ield         | OpenFOAM: The Open Source CFD Toolbox           |
|  \\    /   O peration     | Version:  2312                                  |
|   \\  /    A nd           | Website:  www.openfoam.com                      |
|    \\/     M anipulation  |                                                 |
\*---------------------------------------------------------------------------*/
FoamFile
{
    version     2.0;
    format      ascii;
    arch        "LSB;label=32;scalar=64";
    class       volScalarField;
    location    "500";
    object      p;
}
// * * * * * * * * * * * * * * * * * * * * * * * * * * * * * * * * * * * * * //

dimensions      [0 2 -2 0 0 0 0];

internalField   nonuniform List<scalar> 
209453
(
83644.3559512438
83659.5015536002
83681.1859853465
83658.3366247032
83643.8711656325
83632.3998433416
83622.4588992807
83610.1968583781
83615.0505802235
83623.1198047257
83622.5747669684
83619.8710323578
83619.8760583505
83630.5507399362
83630.0763885454
83638.719205995
83642.5606266798
83640.4810897412
83640.0011885558
83652.8349695347
83661.2049944519
83667.2205594387
83652.7502619055
83643.2758945898
83643.5186098728
83653.5183439382
83653.0899242473
83656.4844852647
83663.0818957104
83661.4546869829
83656.6698638732
83660.0596521629
83661.3358386716
83660.3651968783
83659.1584519875
83657.5185716615
83663.1810233714
83670.1267768418
83657.6730785047
83656.9894269779
83670.650025308
83657.7749428599
83652.5658511396
83657.910170219
83677.2009322313
83618.982920941
83626.6050655746
83601.7177164466
83573.8325078764
83581.3353663941
83597.727776656
83594.5418039912
83570.22701071
83659.8427066319
83668.2079218882
83628.0004018759
83618.129820545
83612.1295518328
83612.3661222613
83612.8794860096
83612.538488795
83611.531057067
83612.9132916389
83607.5378767525
83607.4531356255
83601.528496418
83599.9545515216
83582.23699285
83597.6575430565
83615.0822380242
83611.0962084197
83629.8294727467
83666.7676457234
83661.3697820255
83641.2273102809
83620.3245171401
83624.188067782
83600.5197421503
83589.2353817828
83596.4305731173
83602.9209504146
83607.3276330724
83606.2715549608
83607.025882625
83609.0357637102
83609.7791904973
83608.3165010508
83610.8693030649
83611.4451728353
83613.8668967134
83613.9367493484
83610.7263488755
83611.2216694245
83614.0648928553
83614.346526857
83623.6006183716
83622.5763166403
83632.5879725807
83632.1668569912
83643.1225388764
83644.1426277513
83654.9036248361
83654.011501049
83666.0786729413
83666.3870331498
83662.7046519329
83662.5334879138
83674.8687879788
83675.0252146737
83668.9163574781
83668.2620698363
83666.3269455953
83668.7117325471
83669.2808769976
83666.8356773828
83655.6266648155
83665.3232437627
83666.5385769459
83670.58001193
83688.1671654979
83673.6460686602
83673.4707232071
83682.2822151157
83680.4798705834
83676.611394076
83676.8614707878
83678.3370226745
83680.7991517287
83680.5489185341
83678.7372649378
83678.5558804347
83677.0053289975
83677.0430576707
83674.5213587923
83672.7035172216
83670.4819133031
83670.0411417612
83658.5775589088
83658.8512316218
83651.9485067731
83650.7868215867
83645.4639974959
83646.4342918012
83644.7333308485
83643.9192805155
83646.3738826961
83653.7730711035
83655.6108797593
83634.0379312692
83630.4626958483
83640.5313128766
83605.9321511001
83609.9127317201
83602.5583374911
83599.7453549006
83588.5813165948
83597.7128616125
83608.457175485
83616.9975631612
83637.1194636585
83611.4350246504
83603.8644722891
83621.8526902907
83608.7198732956
83605.0968586828
83606.5666974164
83607.7176658294
83611.038115785
83608.9973215522
83602.8951353368
83600.8853017083
83603.1682227391
83602.627268871
83602.7415374959
83601.1049426117
83602.2420950444
83602.2730669095
83604.7062649684
83613.4278848776
83599.1787521262
83597.3905795188
83607.746848617
83601.9258981067
83599.5904929544
83600.0567921443
83600.7109090899
83602.4445633155
83602.137445369
83604.7564761528
83604.8886315746
83607.1248603343
83607.1772381245
83607.8002284971
83607.7842386899
83608.2433708158
83608.138741999
83605.1569035419
83605.371114809
83605.5350837091
83605.3292978941
83605.678132981
83605.872818416
83606.5836267691
83606.4674178172
83607.5718017068
83607.8641026784
83607.991122853
83607.7818260389
83613.6773839695
83613.5643860412
83623.0249784414
83623.7641269484
83630.8302988023
83631.1164715293
83631.8988795565
83631.5342212341
83641.5670634097
83642.1697863107
83654.1609687824
83653.5197269131
83668.0942374766
83668.3457487656
83685.9628868496
83685.6181441473
83679.7364426131
83680.4368667406
83691.6483916439
83690.2006909256
83687.6047626322
83688.7749558597
83683.2869865575
83683.5134140341
83681.9936440204
83681.280132166
83684.4776379627
83684.3627030439
83691.7169256426
83691.8963797818
83687.4732170706
83686.4867128555
83683.4849847017
83686.1237311543
83684.0544378008
83677.2747948966
83689.1693584661
83690.7726033747
83688.8222762204
83689.3807274069
83688.6552527726
83683.678544032
83668.1777208118
83667.1805820507
83660.3400831185
83660.4864011271
83652.3065958275
83652.9750591358
83645.4118616088
83644.0408036254
83640.1108101295
83641.4456102224
83637.5427199732
83637.2759502834
83635.704759244
83636.1532168826
83634.5537681653
83631.4664872455
83625.000391173
83626.9463567414
83617.6892037894
83618.2924904276
83606.3551431519
83597.2253467318
83601.8947166027
83604.4371062202
83602.7590726909
83601.2162471193
83602.5765215349
83601.9811787974
83601.0410620662
83600.8671562362
83599.8973642098
83599.3289872019
83596.1835596321
83598.0120321039
83600.2199304702
83592.1768516257
83592.1159231366
83596.1029903863
83595.4561697822
83594.9019187186
83597.4357631523
83597.4064741061
83599.6941892894
83599.6913809017
83602.1094520215
83602.0053063441
83604.0366113852
83604.2847797771
83601.4639696516
83601.3081281193
83602.5469482032
83602.7726773926
83602.9530308774
83602.7015992097
83603.0171685381
83603.2942516681
83605.1268961576
83604.8405625541
83610.1014294033
83609.9912515792
83619.548421359
83620.4205035972
83627.1425018233
83627.4012189301
83629.8531172803
83629.5909649878
83640.3077657693
83640.8449386853
83641.7933391565
83641.2579081289
83654.322097216
83655.0148337182
83671.5557168873
83671.320023163
83692.5548298434
83692.6396235159
83710.7720974024
83709.8942295679
83705.258265278
83706.1905407516
83700.1915869962
83699.365186575
83695.5262855491
83696.4054021635
83707.2797950745
83707.164490629
83701.8457981351
83701.9600060502
83697.3584404308
83696.7439420746
83693.0851766821
83693.7911752121
83702.6242688221
83702.0069120754
83699.1664566611
83699.7227999782
83695.8900114643
83693.5636617248
83691.2466236838
83694.7837840461
83702.7658068605
83703.238459728
83702.4193477905
83702.6639474663
83693.2620044489
83698.0168872768
83701.9267797402
83702.6535785222
83714.2342693089
83708.1508943532
83706.1532797629
83706.7399700841
83709.9939652944
83708.6716382808
83712.7996231166
83712.4090324401
83705.1929968426
83708.2221405841
83705.7614665193
83698.5768496256
83700.8873606157
83705.9605746912
83703.8121920157
83702.1810659013
83699.5224820496
83696.4905473629
83699.7133811678
83688.7972812259
83705.3812535471
83699.0682492245
83683.737650143
83673.6487837252
83666.4064427542
83672.4922334871
83655.2883169282
83652.868881584
83652.9703246932
83652.8113549938
83648.4312993703
83648.9198378336
83636.8127473918
83636.1852292839
83634.91457516
83636.6426639347
83635.3616796818
83633.5477782877
83631.6553870651
83630.8724422042
83634.8856232338
83629.213700977
83629.3810393406
83633.9117139161
83626.0217579914
83625.2398377224
83619.0771496442
83603.3499732968
83609.8109555431
83612.7330619027
83608.2229405241
83597.6024785736
83601.944491579
83604.362538263
83601.9420598151
83603.0669501506
83598.1869044466
83597.7502524211
83600.0645332258
83601.0066361716
83597.1291288841
83597.0718738836
83596.9719439862
83596.6597936841
83594.6408089746
83594.8436933155
83592.4327612317
83588.7861679802
83592.2199515066
83592.7813559106
83594.8717617466
83594.7912852295
83596.7979865713
83596.8649225324
83599.1539532601
83599.176539513
83595.950945281
83596.378612262
83599.3438157762
83599.0417778449
83600.3664866459
83600.5055494385
83600.8261469795
83600.764709664
83601.4098780529
83600.9481501876
83599.8171106372
83600.9974938044
83595.5481311391
83595.9732798171
83599.2894661137
83598.8650530402
83599.0676309463
83599.7444201298
83603.4718188869
83603.5783293924
83613.8155804768
83613.3278959997
83619.1675600464
83618.7686481304
83623.9309019545
83624.1743522537
83634.2105134115
83633.5043647464
83637.5069402103
83638.0996367369
83652.3076811753
83651.6094216117
83654.1417867233
83654.8460600023
83673.0247019256
83672.8347693771
83697.3144979578
83697.1643523714
83721.5210612307
83720.9438314881
83716.4001963634
83717.2874241206
83734.7942386154
83734.7812752044
83727.4185856884
83727.4299294005
83720.0488829362
83719.959176186
83713.3499010684
83713.4130663349
83726.6324704369
83727.0194915729
83719.2461697914
83718.8269719169
83713.4581681423
83713.6317598862
83707.3458177034
83707.4793266466
83717.9130777382
83717.9329071347
83711.7249862508
83711.8939550298
83707.5853208665
83707.5937065471
83708.569966353
83704.8768576696
83696.2383632291
83710.4613160356
83702.6668127167
83688.0437133032
83675.6499014255
83659.7905552226
83635.2869819377
83605.8658485152
83579.0870943545
83549.7421920304
83532.5076595739
83534.2098435633
83564.8306545165
83565.985246194
83582.686177721
83579.92107366
83592.3159527971
83592.6835656316
83587.0278386502
83585.2909050336
83592.7368505507
83593.5308521285
83590.0586475491
83589.280788442
83595.0867863156
83594.5672661916
83592.7871796322
83593.6508199875
83593.662138242
83593.2233676157
83589.361792009
83590.2310378068
83589.2382182003
83583.8655705544
83586.0178715472
83589.6655512408
83590.6838507403
83591.7114159685
83593.4131374221
83584.2007872341
83590.1932896015
83591.4709881633
83594.1407092363
83593.9209999819
83592.5389052567
83592.733979018
83592.7861075469
83592.5542340282
83593.504647245
83593.1681062542
83592.5895520846
83591.7228468546
83590.4605081371
83587.5968959355
83590.8603003419
83589.6621371529
83588.0775897569
83586.5795995372
83599.0233087318
83593.6992104252
83591.1240117688
83594.5399274629
83595.6781403282
83597.8136681543
83595.7544576175
83599.7596326289
83600.4184173182
83611.3533227311
83643.0044944632
83640.302110055
83603.5642969757
83580.7133740817
83554.5914034344
83567.0380737475
83584.3848268247
83588.4013035701
83583.5687006197
83600.9281559255
83597.1594529339
83605.2280887626
83608.9431601265
83639.1849927995
83620.0125947346
83610.7146192197
83644.7478394833
83587.4651466892
83590.4531751576
83582.7929770166
83576.7619752228
83568.1179693787
83583.4880596036
83582.4472132802
83557.8946326586
83571.2263575442
83583.9761448988
83591.7126720896
83588.0476227328
83592.9113599312
83594.5998951443
83595.8206243639
83593.4261868921
83597.2421622706
83598.2397601822
83597.5351574716
83597.2601271473
83594.0053097972
83595.1668655347
83593.3870736088
83592.5252943019
83569.6236558744
83584.0126362397
83591.5286017091
83601.1830403261
83600.2104801225
83585.9869360362
83593.0359483427
83605.0302352686
83613.0423598825
83625.7308740209
83612.7707249846
83611.7863855084
83612.7305031722
83611.0769731556
83607.0256148644
83608.0259023018
83614.521867649
83613.8836305109
83621.3697275092
83622.7672910422
83627.6064403348
83626.5378170677
83637.3151121165
83638.3436210304
83647.5794672281
83646.9560974607
83664.7850326983
83665.1320059281
83671.0193256235
83670.7024829882
83696.8611749188
83696.7283410311
83726.5091664552
83726.2307360573
83724.145746696
83724.6089099821
83747.205617609
83747.671116702
83742.3425651307
83742.0789254018
83762.7000991152
83763.5406857606
83753.6944879902
83752.8596141263
83744.0515518091
83744.6537493602
83735.0368524248
83734.4912693318
83743.2732909116
83744.3649536364
83749.7273799897
83749.8787188441
83744.6448404081
83744.526868563
83739.3110479707
83739.4859959445
83734.7485478779
83734.5715742527
83731.0761920585
83731.1973516624
83727.8974412135
83727.7979472707
83724.9684366732
83725.086844106
83720.8424130832
83721.0179468375
83720.9183145289
83720.3262997281
83724.3092478014
83725.0087774377
83726.9332694604
83725.947786871
83729.6526669593
83730.6752774891
83734.1150987161
83732.9958760638
83739.9254034822
83740.7921137758
83745.2082107681
83743.2958161273
83758.8321086021
83758.5933350527
83755.507745179
83753.9343727132
83752.4822632579
83749.5939069118
83742.1404132073
83737.6725992401
83731.0557608283
83716.2171893932
83694.6880585077
83667.5068576711
83630.3073237498
83588.0538750357
83558.1418117787
83541.2586674279
83525.0221799125
83509.691594787
83506.5507711903
83548.7578630372
83551.9719466613
83574.5943706988
83571.9224068952
83565.0804399251
83566.8430377405
83581.8591541588
83580.2116971102
83577.471602631
83578.1574138574
83587.4868120472
83587.5396797637
83586.1363290311
83586.4874434656
83586.7606200444
83585.0692192184
83583.5085698612
83587.3897271845
83589.7390920032
83587.2293701371
83584.6970845142
83587.1270084248
83589.2635612711
83589.9565070971
83583.5408859948
83590.9726904034
83601.5887577344
83630.9745101679
83582.1144302921
83594.6507551287
83597.8708807071
83572.6686439036
83648.963507744
83625.3644558924
83624.0450360534
83644.6167999818
83632.0058836285
83626.7897506985
83620.0371732625
83619.5489693945
83615.0361400075
83616.1253271146
83620.3820145208
83619.3141082052
83629.8433954374
83630.7831410124
83638.1548488604
83637.4227110315
83651.1274185188
83651.8157910636
83670.1150008021
83670.2781346909
83689.4729833483
83689.2240128058
83723.2852946389
83723.766136712
83725.8589059244
83725.8145349376
83751.9412775218
83753.1171509006
83752.392004499
83751.5356900466
83776.6648702356
83778.0593374732
83771.264325551
83770.1262733259
83785.6252858469
83786.8732393858
83795.0572167955
83795.2919119586
83789.5499589508
83789.3486864788
83782.9518462155
83783.2354843919
83776.8341865671
83776.5215466953
83772.3757225228
83772.5799553138
83766.4454321148
83766.3022105106
83759.9619541388
83760.1915683678
83754.2234205963
83754.019984778
83763.0379197391
83763.2602587267
83758.3413497858
83758.1681271675
83752.0491321116
83752.2629954248
83747.4337655362
83747.2255794576
83741.6905139045
83742.0024924317
83737.9388580327
83737.6890604521
83733.1588894914
83733.4580824191
83729.8447995453
83729.7440841392
83727.1689218195
83726.9735961301
83730.4831284177
83730.6678983625
83726.6047636723
83726.5140161181
83720.1710119208
83720.3236505832
83717.4953753844
83718.1805339977
83716.5175350481
83715.5108785798
83714.9320480423
83715.3310203095
83713.6617653174
83716.556484255
83722.1847951977
83720.1348748576
83714.0374902457
83713.9316429674
83697.2653212836
83704.553714741
83716.9238435551
83717.3674892293
83713.8418225915
83712.1579938128
83700.5589037037
83703.6718147031
83695.5708900432
83691.7912744029
83678.1594355275
83684.1923990824
83669.0007041726
83665.9713311127
83649.6117245129
83647.9366869637
83632.4497902078
83631.2323316708
83635.5099538876
83634.2456439825
83636.9571059711
83637.061890341
83619.5438700719
83619.5216597355
83622.0170815898
83622.1168125477
83622.3860476116
83622.4274312382
83624.0748483582
83623.760261349
83618.2538238432
83620.533144642
83632.5579498827
83625.764878111
83620.4413986814
83630.3654702084
83614.6858083244
83611.8016414469
83620.8584551812
83622.3818201039
83617.7269486185
83611.6797607472
83607.154849059
83618.2892582348
83587.6792132238
83592.7495226298
83601.4976814803
83604.7175237507
83599.2202639944
83593.4934451081
83587.6577569369
83582.5948511923
83577.0746302005
83577.4702499441
83576.7620220568
83580.4385258139
83582.7148412462
83573.673296466
83585.3641098431
83583.4066506665
83588.5061606795
83594.0169084126
83593.0343400623
83593.2090334512
83598.2112084074
83595.0000091216
83610.537439296
83607.8746178427
83614.4732023242
83628.2658127226
83629.8487489992
83615.5486529154
83615.6243262075
83616.6584651341
83620.2200938622
83621.5267877785
83609.7796236356
83610.8312727461
83610.7068680201
83607.9920330186
83620.0930031858
83621.6749709676
83621.0490244853
83619.8499191175
83646.7453593819
83646.7542442783
83665.3032570988
83665.8067076767
83682.3414878699
83681.3978117181
83701.0900804189
83701.8926309155
83713.4855536169
83712.6992720428
83736.9571694178
83738.9134072749
83749.6320530339
83748.163396037
83773.7671180311
83775.5855351178
83779.8935799093
83778.1744875573
83799.1967892951
83800.6647604407
83809.4503030349
83809.5955299632
83807.3472359039
83807.1146287186
83802.7131664356
83803.0339711284
83798.2261937798
83797.8387761516
83810.0847564896
83810.0491477659
83806.357382152
83806.4404379478
83799.7869510207
83799.7650757127
83794.3097500814
83794.2468156854
83787.2298621717
83787.3963395424
83782.4186252668
83782.3163654458
83775.3166635912
83775.4396376934
83769.8736744514
83769.6815678633
83777.9635865343
83778.084363558
83771.3642836874
83771.0895945226
83765.7748911344
83765.9725755391
83759.7284942714
83759.4002629238
83754.1617848435
83754.3755682605
83748.687285217
83748.3435062885
83743.6862695618
83744.0072689908
83739.22541616
83738.8455219914
83734.692435695
83734.6902337055
83739.6397649068
83739.5985921984
83736.3605361074
83736.2182333305
83740.2834098211
83740.381437501
83736.530808564
83736.6042284274
83730.7504780591
83730.2445402823
83725.7602983101
83727.0791394278
83725.9980574632
83725.170470205
83725.1010780341
83724.7102361887
83731.3276687213
83730.1976762929
83731.4464599035
83732.9450911547
83735.4760287095
83734.3361768821
83741.7921896775
83742.7980187163
83739.2383656311
83737.1748230013
83735.6692382489
83737.6015923103
83732.8188780464
83732.450984068
83726.4657047596
83726.1780040979
83721.4819757625
83721.6744588245
83730.0272406726
83728.5643555626
83725.9273625786
83730.7027885661
83723.9895401825
83719.6955431859
83709.1511081741
83712.5828411273
83699.3414705481
83695.1277563105
83681.840690162
83688.4590993314
83673.3994449941
83667.2489172578
83654.4161945893
83664.2595037431
83648.7759265342
83650.1080353792
83615.700769378
83616.5124142713
83585.1254893259
83583.9675665283
83603.2274763528
83604.0905489098
83613.6371792534
83613.7701007981
83599.0581531551
83598.8506337544
83604.9448522057
83606.7314078718
83611.6378017414
83611.1327465501
83613.020878091
83613.6019644519
83603.0644329587
83598.6899455295
83616.2455738522
83612.3048791787
83604.8261191597
83615.2127772534
83578.1679788951
83592.3834968529
83578.0474763566
83572.0972969788
83558.6079468945
83555.5263710203
83536.1974348127
83542.5818829511
83493.3056951441
83496.5857670847
83461.9997714471
83460.402811055
83436.0990086178
83435.4838166386
83404.1916157011
83410.4067169956
83485.6668389486
83486.487836662
83538.8889233444
83536.1949446704
83532.7925059285
83531.3655246246
83561.3821774732
83560.9309477317
83552.3984997565
83557.7338265926
83569.0816065317
83557.1145349049
83577.6963113512
83578.4388482598
83570.0259470272
83551.4180834475
83569.3314715886
83569.570519893
83572.7331993211
83576.7047109397
83587.172107472
83581.9331788884
83588.933856164
83594.2312677894
83596.5462813354
83593.8927973772
83599.8006250906
83607.7503939592
83611.8384514766
83603.1810391096
83594.1346292928
83591.5199054003
83598.674911433
83602.0214941046
83605.2009633628
83602.3745949749
83593.6337864808
83596.0887544513
83591.515502488
83587.125150823
83580.7816168171
83585.999035969
83577.9350498297
83575.684486376
83582.053693367
83583.6738507983
83585.6528174673
83584.2196542476
83588.5538490991
83589.342086099
83599.2929786173
83597.9041253986
83603.8331549596
83604.8539573835
83626.1892708495
83626.0520755342
83643.7256840957
83643.5882133608
83644.9870094341
83645.6699841271
83671.8069226385
83670.944500861
83696.9613147234
83698.9813421109
83721.2279480314
83719.1949942309
83738.3090210598
83740.2589329896
83763.3879254187
83761.5644995247
83783.395379462
83784.589165879
83789.7616625433
83789.6861276487
83799.5622591194
83799.5227934086
83804.2272318892
83804.4571723655
83807.0253911962
83806.7632446584
83818.9032003855
83818.4051025936
83820.4740801102
83820.9055167301
83818.3692906786
83818.1253296586
83815.295735844
83815.5102189689
83824.9943515262
83824.4026642536
83819.2238190058
83819.5670709978
83815.5856848189
83815.311430664
83808.9077737285
83809.0579656058
83803.3231854106
83803.2683379186
83796.2881224881
83796.2267562154
83790.8948701447
83790.979905858
83784.0649605292
83783.8832023738
83791.5429969572
83791.5365684775
83785.3597605922
83785.3718373526
83778.6576771529
83778.7184828343
83772.9457398985
83772.9311447601
83766.5651213088
83766.6937436574
83760.8232742424
83760.7698887027
83754.8071628199
83754.958203404
83749.6224297397
83749.4414353608
83744.0907190007
83744.4765605365
83749.982777669
83749.7038433283
83744.8460560633
83744.78765327
83750.1526217623
83750.1298136605
83746.6203569222
83746.4432917295
83750.6466605041
83750.7463105202
83746.7897591731
83746.8408149614
83740.6914731339
83740.1665474315
83748.4051979599
83748.9612060327
83755.9349345448
83755.4643758517
83748.2345404308
83749.1880765322
83744.9854201726
83742.6846154514
83741.0971142715
83743.3564114729
83738.3619958143
83737.3773816837
83732.8346287421
83732.6421212391
83727.1470391765
83727.8358855104
83717.1615092524
83717.3619204546
83711.6036140734
83716.1396577507
83711.6482388192
83704.6403654807
83706.4032430228
83705.5446067625
83694.2830905508
83693.2900742869
83679.1078404796
83688.2150329292
83666.2494967061
83667.147622558
83667.9695409315
83666.9113028273
83649.9697696649
83660.0423708554
83635.7150927553
83632.6035227758
83593.3317421902
83594.214666037
83555.1842823417
83556.9925367818
83531.2897524611
83528.570036777
83560.3214601366
83561.5163064783
83584.0521531735
83583.6947570541
83559.7179913358
83560.5220958309
83582.0764377138
83580.4702456862
83590.6320532021
83585.2716437896
83600.9131835501
83599.8331358284
83590.4361721931
83592.8909832474
83574.4787047119
83579.206171424
83569.593844273
83577.7449773788
83554.593345146
83550.539145926
83518.167226294
83515.2610287985
83492.6196999055
83490.1252543528
83468.9981745992
83473.2959711096
83418.0935514134
83420.1841628431
83376.6249452501
83377.8025812176
83352.4564177984
83343.084226989
83311.7212027236
83328.7184355927
83322.0302610381
83303.0951920873
83363.9431548145
83360.737561131
83462.7053167538
83464.1183470018
83468.1395686655
83462.4556466407
83454.3804574115
83458.768894397
83501.570897227
83503.7344469614
83544.7633637124
83534.3183664519
83542.1722864343
83540.2546141859
83557.0675305445
83548.6934287114
83557.1611664402
83556.8417068119
83555.5145568533
83550.7811056436
83539.9592670715
83546.4868316533
83544.2167537016
83546.0418536003
83557.7914107233
83557.3764546166
83572.3874854996
83569.5887455113
83576.3099601727
83577.7102575846
83589.6614418718
83586.034923895
83582.4874007019
83568.7119419347
83556.4777377381
83570.3565252675
83571.8133230638
83571.9743093711
83561.6873739923
83560.5529058908
83563.6983828742
83563.6875271704
83566.5079650706
83566.9632627306
83569.7698557194
83568.7208900737
83580.0832598566
83580.8044694881
83596.1715562057
83595.9058573154
83619.5441404231
83619.4750920386
83611.3792058745
83611.5007001885
83643.5198526473
83643.1129089707
83675.1370118252
83676.1668346208
83711.8508513792
83710.3083037379
83725.0422691578
83724.8690015703
83721.2128268543
83721.0337428817
83742.6634504948
83743.1534836631
83759.3924024516
83759.1904974808
83776.1277016857
83776.3570737008
83781.7118648802
83780.1219940319
83794.6247437367
83795.7957878534
83808.558044811
83807.4548125156
83814.4598964692
83815.09610445
83821.3839541109
83819.5352459366
83825.5082423412
83826.932723075
83829.7967212081
83828.7335393456
83827.0745047395
83827.8422949294
83832.4140631336
83831.323125076
83829.3458102541
83830.2075545473
83825.5825805596
83825.000362491
83821.3713071074
83821.8471652046
83815.8023071841
83815.5101312393
83810.1173476748
83810.3618808926
83803.7639018699
83803.639643219
83798.1889152221
83798.2821042572
83804.4157896162
83804.2471991824
83798.017782267
83798.0949789264
83792.1315323001
83792.0653558027
83785.6729631467
83785.6804561996
83779.6645144646
83779.680383297
83773.3476627985
83773.2882328666
83767.2146500541
83767.2806900903
83761.2608747556
83761.1285398037
83755.4081366387
83755.5286015318
83761.2982603334
83761.1534869782
83755.1335360279
83755.4662888324
83760.9148880233
83760.6727368659
83755.5034119478
83755.4144545015
83760.6163996961
83760.6109345201
83756.8447059851
83756.585774798
83760.3905044412
83760.5496107387
83756.0677291495
83755.9077589996
83763.7261116448
83764.1145121672
83770.4642726203
83769.8576838816
83761.3998136946
83761.0192220334
83753.0952929231
83754.0549021365
83749.3561721107
83747.0150516637
83745.2189842024
83747.5716105316
83742.3454404874
83740.8829260764
83735.3863504589
83735.9216526574
83730.2045099434
83730.2269670522
83722.7519045914
83721.5381596222
83712.9321502594
83714.7120571715
83702.7681833105
83703.3052417458
83691.256607816
83689.0266067324
83693.568318714
83691.8457778045
83680.1655228225
83680.6245938203
83678.7806195246
83679.6887137692
83676.8738945736
83676.0012753953
83678.026575938
83675.4725145218
83660.0558472763
83665.7060511836
83642.927703286
83647.8864911838
83611.9368541073
83609.4728004641
83562.6927464014
83561.2552221394
83515.3385449808
83519.0652456668
83491.8551936348
83487.0104169752
83451.3954433562
83455.8810162873
83498.3143995046
83496.2456486331
83531.6547996878
83532.6465498943
83505.8138086831
83504.6944518806
83533.9954979956
83534.6135964103
83564.7598591981
83561.5795851144
83578.7645080465
83584.0742294279
83572.4922313183
83558.5812511632
83529.5812753301
83485.5900411343
83440.3813402594
83388.739529975
83345.295262648
83322.1572033865
83320.213835456
83303.9665411715
83301.6986855477
83358.1290636438
83355.9777686417
83417.9359719205
83415.5951601763
83405.5908768176
83404.5091740755
83397.7279109211
83398.6769657931
83391.6216353456
83390.5551836974
83451.1110263951
83452.9962884261
83501.3055063687
83501.7860316892
83540.7288856654
83535.3191032812
83534.7211527618
83535.6984937517
83504.7159982572
83502.1441197843
83455.5792451193
83454.6318119277
83452.0887774129
83453.8502366178
83498.666742967
83499.8795210269
83538.9154072583
83531.6908092965
83531.9338942505
83533.4066080305
83508.4323369113
83514.5963018385
83534.7087481155
83535.5507178601
83503.7983319589
83464.5582470311
83466.1205595933
83427.6443616434
83433.9817833765
83368.5200862353
83371.3285314586
83414.2280092879
83351.6773598389
83345.6336805392
83346.0942270997
83331.4575276004
83329.7424012818
83313.8616735177
83316.2668093475
83306.3736906079
83305.284505048
83314.4896924738
83314.8947954291
83312.5306548693
83309.5665162923
83308.6145613468
83314.4547500177
83309.7683706399
83306.6590607938
83306.1312532908
83311.952897341
83286.6109291954
83295.4636496542
83295.902300837
83283.4839463752
83293.6551857588
83298.3637277116
83304.2255424409
83303.2837177409
83311.606235937
83311.7320826635
83324.2555897379
83324.3415131323
83328.3514837779
83332.5756796915
83333.9093915054
83330.0287922018
83332.754747076
83334.6353411784
83364.6314121103
83365.3354749636
83374.24332219
83373.8333776471
83385.2236446311
83385.403543854
83400.3011579217
83399.7653683997
83415.7672250651
83416.5341988482
83433.2755575843
83432.2481785333
83447.7581036031
83448.9733953186
83463.013620908
83461.7144512329
83472.915375644
83474.0849779908
83483.6425385549
83482.9487834164
83491.8975229333
83491.6952164002
83504.8682660994
83505.8778295836
83527.1961945629
83525.2164999838
83564.6416682457
83566.808959722
83626.027749394
83625.1854340093
83695.0539469213
83694.4248620008
83752.5503711998
83754.2177688085
83786.999766494
83785.1930505745
83801.0230795504
83802.5606457546
83809.8419289211
83808.3601375582
83813.4115642076
83814.9317970354
83817.4250492105
83816.0651028651
83818.3526140231
83819.5248760779
83819.2420952097
83818.2932238752
83817.4346926966
83818.241208119
83815.3714276229
83814.8593759627
83811.9078539048
83812.2773516614
83807.7557656585
83807.4567334587
83802.6901662287
83802.900106915
83797.2975261398
83797.2087894218
83791.5107883574
83791.5568450215
83785.3927771836
83785.3718915332
83779.202639959
83779.1638864964
83772.9000839057
83772.9863729961
83766.8980227295
83766.8171756438
83772.2065212321
83772.2734247862
83766.1611477942
83765.8827794225
83771.0768082794
83771.2637770227
83765.5420833603
83765.6706110603
83770.3688565301
83770.3195144666
83765.9091263301
83766.2316740089
83769.3291040517
83769.1119041635
83773.9392133836
83774.2846448235
83776.4780933297
83776.2210585399
83779.9535159581
83780.3091446081
83781.1956813488
83780.8799766225
83773.5697171818
83774.4578387594
83764.5230285336
83764.7331249979
83757.0570326451
83756.2471493663
83749.7816695691
83751.5681780794
83749.1663123752
83747.7303290166
83743.7448922428
83744.8726996472
83738.1555741261
83737.7721899118
83731.9182826297
83732.2888202609
83723.3630593297
83723.6902501745
83712.8987259461
83712.7565216977
83703.127548135
83702.0371358869
83689.4557452781
83690.5739716737
83689.081587904
83689.0490663167
83685.2338521299
83684.2857843702
83667.8515924804
83669.7828397755
83663.2278333908
83659.5171407388
83644.466045996
83648.0508813187
83645.3716180145
83646.1298259587
83625.469786138
83622.4329597597
83594.355992246
83600.5613984896
83560.146298874
83554.2583695255
83517.3002027176
83510.1193037977
83459.0601155054
83465.6662977256
83441.6998980942
83433.9357288634
83397.4979323149
83405.2671017804
83379.3220339174
83373.6543356793
83423.9005318864
83427.5839718493
83468.9868112874
83466.9643810836
83449.6650912766
83448.3657137541
83414.8881296692
83409.5135152655
83384.4296763832
83390.7331061616
83327.2689414762
83324.0212917199