/*--------------------------------*- C++ -*----------------------------------*\
| =========                 |                                                 |
| \\      /  F ield         | OpenFOAM: The Open Source CFD Toolbox           |
|  \\    /   O peration     | Version:  2312                                  |
|   \\  /    A nd           | Website:  www.openfoam.com                      |
|    \\/     M anipulation  |                                                 |
\*---------------------------------------------------------------------------*/
FoamFile
{
    version     2.0;
    format      ascii;
    arch        "LSB;label=32;scalar=64";
    class       volScalarField;
    location    "900";
    object      k;
}
// * * * * * * * * * * * * * * * * * * * * * * * * * * * * * * * * * * * * * //

dimensions      [0 2 -2 0 0 0 0];

internalField   nonuniform List<scalar> 
162506
(
0.0150874386636213
0.0150914157468295
0.0162984836328292
0.0164061578990861
0.0167317963183746
0.0165728460586625
0.0151721387474018
0.0151278936010454
0.0164311375627787
0.015810685107826
0.0153535826316779
0.0150314500033257
0.0150685530567415
0.0150490513603473
0.0150132789802612
0.0150111132786434
0.0153245830243701
0.0157351452884236
0.0150449004192134
0.0150920089315229
0.015056120565108
0.0153412033430476
0.0157499525216341
0.0158004576707799
0.0153758461670129
0.0153291032460513
0.0158118069693102
0.0150103035233636
0.0157516777088817
0.0153092747644012
0.0150027635305195
0.0150029872642759
0.0150132939665666
0.0150007570546901
0.0149985328550386
0.0149980731033276
0.0153027721175772
0.0157509026273679
0.0150006770139198
0.0150757597254152
0.016285479986764
0.0162868554081812
0.0150717886427463
0.0151160538474319
0.0169421919288879
0.0169512057440094
0.015118724874602
0.0152570877953638
0.0173879872138238
0.0177210764829825
0.0171052306957362
0.0178912142866342
0.0188732834507187
0.0183098446580177
0.0153536585307832
0.0153030181771571
0.0179965992745297
0.0171592105174027
0.0152291554077142
0.0153346206482188
0.0172187169204499
0.0164794370580589
0.0151769322447957
0.0150524433484836
0.0150163646181806
0.015348405784597
0.0158681894879945
0.015829642461486
0.0153008631893958
0.0150080528084417
0.0150285240896345
0.0150161662489623
0.0150051479159468
0.0150106213660862
0.0150288324968813
0.0150320609695821
0.0150755645425211
0.0150740594343256
0.0151496111547494
0.0164186908928335
0.0164364999553196
0.0150885527313323
0.0150133176919166
0.015002909973498
0.0152981225812577
0.0158259488963362
0.0159353881784237
0.0153536403187158
0.0150018574251409
0.0150105525418862
0.0150023452026111
0.0150017027561814
0.0150002014589143
0.0150016836150673
0.0150056202592637
0.0150010577069936
0.0149989927797239
0.0149990695039145
0.0149995967268368
0.0149992866616248
0.0149990330923727
0.0150012847801265
0.0150010922910634
0.0157505480218101
0.0153026016380949
0.0149986573988855
0.0150033825121985
0.0153088191183114
0.01575075049606
0.0150109390404919
0.0150707150782793
0.0162848839998491
0.0162846430230671
0.0150740091763233
0.0151145637693958
0.0169491023818066
0.0169507422465807
0.0151214056329347
0.0151609709352884
0.0177427045178628
0.0177086235612019
0.0151609621175774
0.0151559686911769
0.0176894532637648
0.0185155132191696
0.015477832723538
0.0157733312638936
0.0193271327228332
0.0201357543684993
0.0187404939743499
0.0197544442721788
0.0212819333245175
0.0206036865454498
0.0166404143336403
0.0160702955658821
0.0201731893856089
0.0189447487634359
0.0155807387289726
0.0154594926640476
0.0192316980374318
0.0181480294149322
0.0153564325151775
0.0153190925603943
0.018073932929351
0.017154276101052
0.0152749513629382
0.0151438103584085
0.0171857341342094
0.0174783207259049
0.0153348804370265
0.0151510217967591
0.0166207399187339
0.0166981203922234
0.0151203418964001
0.0150080616443767
0.0150015649831574
0.0153820114914602
0.0159814352481231
0.0159210453769766
0.0153476059814702
0.0149991338283082
0.0150044509917693
0.0149999917705521
0.0149998030210174
0.0149990192023723
0.0149973537290747
0.0149981370228701
0.014999299232212
0.0150004422418469
0.0150013918333681
0.0150060230644358
0.0150015110343062
0.0150035947025778
0.0150140261893984
0.0150497367167463
0.0150141277509061
0.0150119428348328
0.0153238174783841
0.0157333457322206
0.0150455773029321
0.015088241198905
0.0162948719912506
0.0169447241746915
0.0151167627732928
0.0151124766037579
0.0169381686999836
0.0177001622289917
0.015156114670629
0.0151529490550903
0.0177391648941246
0.018663796911686
0.0153745886272044
0.0153852904038582
0.0186716596861932
0.0185900413585058
0.0154163286989065
0.0160095357408616
0.019738274302499
0.0195753817862381
0.0160847809788194
0.0162791441359986
0.019977040594675
0.0209295990100804
0.0172501514317644
0.0174642237114837
0.021390826881633
0.0215300062928133
0.0172733150587364
0.0165755674798728
0.0205513272537672
0.0214114930096757
0.016762033658414
0.0173597831886061
0.0228682511659174
0.0248019753814041
0.0179857337532937
0.0186079815251989
0.0246889037985723
0.0251687669249436
0.0290171100309686
0.0266328470965837
0.019264000131113
0.0190594743707117
0.0264464982501469
0.025819800314369
0.0188989030972189
0.0186104197513073
0.0233789581055554
0.0263198535694459
0.0251223658780418
0.0234563907350297
0.0178164070718876
0.0218783029770864
0.0241517688347424
0.0228177336917988
0.0208574314398024
0.0173613601456464
0.0224802584088103
0.0223282787238297
0.0170298809377517
0.0162415500696307
0.0220604093310139
0.0205338525371161
0.0157261989813894
0.0154751305548687
0.0204120793992898
0.0191503100993108
0.0153652816919508
0.015216225266236
0.0191479062336719
0.018089639717434
0.0151791040667519
0.0154001301718585
0.0185889702403496
0.0186843071698553
0.0154149043121997
0.0153323202491034
0.0175659473128322
0.0173564396888221
0.0151140815609001
0.0150459163263511
0.0165890939329389
0.0165844093376875
0.0150512518282808
0.0150065869458168
0.0159179875985886
0.0153470335868097
0.0150000940995397
0.015000157493152
0.0150015700827817
0.0150065624233136
0.0150010102067778
0.0150022384418567
0.0150047768456931
0.0159757601855348
0.0153804536149574
0.0153517583129127
0.0150004190936744
0.0150096508694364
0.0159306628712908
0.0166115379668798
0.0151527101469487
0.0150890410984485
0.0164278973390314
0.0164136156444012
0.0151510026707479
0.0150280515899367
0.0150086073212943
0.0152998121136379
0.0158276028054327
0.015821328015892
0.0152968923328299
0.0150033697641132
0.0150136352067506
0.0158641266764774
0.0150517621042007
0.0150157871762665
0.0153471398039397
0.0153527039830266
0.0150309246410699
0.0150675199404738
0.0157898277034143
0.0164049932865046
0.0151417076244066
0.0152427099901221
0.0164323690573121
0.0166318911747814
0.0164490098172172
0.0157543624967096
0.0153310145053217
0.0150325459064204
0.015069541190774
0.0157621255882791
0.0153310696176943
0.0153751731120612
0.0157680018075014
0.0172587866236501
0.017611076439969
0.0171293878090733
0.0153430270860544
0.0152482995693912
0.0171287191264559
0.0179579914526392
0.0153269008018608
0.0154393818550103
0.0179093217541715
0.0187463960532354
0.0181667075647519
0.0192067942991094
0.0199514284364486
0.0187478868200369
0.0159052001010011
0.0154942612401525
0.0184965205250512
0.0185731580046532
0.0154064471088212
0.0159948053391606
0.019686746604238
0.0198426148170378
0.0159388536235223
0.0159495973738914
0.0198637938026952
0.0217735343423151
0.016801776449852
0.01742236372006
0.0232503638160747
0.0255984539355944
0.0178680839694325
0.0177950721156787
0.0249948908416301
0.0277449564692017
0.0192015251449182
0.0193824507773313
0.0272003195709089
0.0265267890584321
0.0195650742988792
0.0193423804549187
0.0284009491088865
0.0325051308655509
0.0274062270343515
0.0297490936501068
0.0357774379812047
0.030355065627945
0.019805587331759
0.0193351820572208
0.0298747602644544
0.0279418393024083
0.0192183747461739
0.0190448051324711
0.0267173555746903
0.0253637098050652
0.0185726933505706
0.0180212321192977
0.0236291036672162
0.0232633744191853
0.0173841167976338
0.0172256913402403
0.0244849120913334
0.0239530257525543
0.0168207714781353
0.0158353072866656
0.0219187592294033
0.0218219269043215
0.0155143253158789
0.0152821832574025
0.0203790140333398
0.0215500832971285
0.0155260959612807
0.0154627377929547
0.0199338643623905
0.020032843318145
0.0154888558665333
0.0152221022298956
0.019316034929505
0.0182610222571975
0.0151697843277187
0.0151752825090116
0.0182537682755685
0.0173510512250822
0.0151195101931387
0.0153352800854926
0.0175537193013386
0.0166888425521748
0.0151252790772276
0.0150475506809671
0.0150072242450672
0.0150113891857528
0.0150051955692708
0.0150040786538662
0.0150039364054872
0.0150020937453313
0.0150443733784698
0.0150230542579769
0.0150544972649245
0.0153358167442488
0.0174643464663094
0.0171728950929266
0.0151411055326677
0.0152759605621432
0.0171447699454155
0.0172068342931277
0.0153372619474798
0.0153622049028158
0.0181292455124325
0.0192001063342832
0.0154765960987259
0.0156204645190107
0.0189001029775895
0.0201119918470084
0.0161503760194038
0.0167160072907288
0.0197598013571486
0.0210513126261385
0.0204362248329419
0.0222383560319293
0.0225475894228436
0.0208759071458594
0.017471241543972
0.0173139248227622
0.0208576451835042
0.0199129067377819
0.0162678225742997
0.0165699376878962
0.0204830401665927
0.0213622541916052
0.0173856300465467
0.0175366543953804
0.0212831238080025
0.0218425347464733
0.0178843691051866
0.0233642141363502
0.0238260707318454
0.0259616825983106
0.0233869193124807
0.0188735842395567
0.0249825467050248
0.0259601334042436
0.0193759860237865
0.0197052928630414
0.0266003652878232
0.0262509068386956
0.0277918704660718
0.025035227661268
0.0199078615690326
0.0191453327818705
0.0244450605895444
0.0246513529951009
0.0184989092794854
0.0180747087368714
0.0248510935993204
0.0255004289303383
0.017994142683934
0.017887212655059
0.0256343015091828
0.0257125775188749
0.0178795357497632
0.0194848568781354
0.0287972505898266
0.02857165706781
0.0194427085821263
0.0207607169127062
0.0306558116009495
0.0297619731654476
0.020468772881131
0.0203390495942105
0.0296188026838683
0.0288375093026594
0.0203686441680935
0.0199481867892011
0.0284544470752803
0.0294752056602731
0.0204635596033547
0.021195131744277
0.0333766196902618
0.032584980573218
0.0397632840409004
0.0323806638188991
0.0201645895688144
0.0194863626708822
0.031890496615867
0.03121867789013
0.0192937602464214
0.0189951718000985
0.0294605264336461
0.0273259927451561
0.0188778631362378
0.0179839847678625
0.0261949438753609
0.0248832775808354
0.0176793397354375
0.0168145960989478
0.0160754529034679
0.0154545674957092
0.0155063807213701
0.0157025626466752
0.0164471849744045
0.0240438225243413
0.0256184867164853
0.0165369019621609
0.0164867705476704
0.0252939003236556
0.0248925358019323
0.0166458734209471
0.0166027216187996
0.0246070349406862
0.0252966297965619
0.0175138510239028
0.0174567125956916
0.0255174965144409
0.0259255702981693
0.0174758064586797
0.0180518860156242
0.0264804547145298
0.0260117101069107
0.0181220385553008
0.0173173074808336
0.0246177368567482
0.016720950247342
0.01857801894927
0.0276980682913131
0.0295081385307669
0.0195213407240266
0.0190338638705884
0.0285416947699134
0.0273943165031081
0.0177885634103854
0.016750343941613
0.0282873609952779
0.0307793929336492
0.0163269335973037
0.0162197659583632
0.0281167486799565
0.0256235444859799
0.0160800167486229
0.0156151125013711
0.0234648152048881
0.0235578121853244
0.0156432509624975
0.015555555169751
0.0216481099020341
0.0205352002168546
0.0152732154141325
0.0152784664169896
0.0205195990913277
0.01930563521185
0.0152277481796683
0.0154878144249627
0.0199975308307751
0.0186644802692518
0.015416861836916
0.0153956810720673
0.0185668864785812
0.0180698099318395
0.0151683024065148
0.0153179671937677
0.0180564571214587
0.0191197195253876
0.0153593092063255
0.0154569919864332
0.0203616621374071
0.0204823899835875
0.0158014701485837
0.0163480768063453
0.0220343012492077
0.022255221805443
0.0171528266795275
0.0181996874218993
0.023699444932068
0.025153637266059
0.0190977378130941
0.0196244061844835
0.0275206139039293
0.0282754250094623
0.0199960967639911
0.0198438746686053
0.0271623956711659
0.028294419243472
0.0208002861444555
0.0208306537140718
0.0289294844628118
0.0291535755938279
0.0202658696215397
0.0207800270276173
0.0308083274644852
0.0320603595027535
0.0371266327718485
0.0323589011567714
0.0225348971990115
0.0228270194357025
0.0320681306170141
0.0307446613418155
0.0223626537895017
0.0213940901019701
0.0291862456594768
0.033255710867855
0.0296506013646344
0.0282649893366299
0.0308631484183137
0.0274103537766631
0.0213040750746428
0.0208222190776273
0.0272707067358503
0.0273265007226367
0.0200891243721175
0.0195524272992828
0.0277482147063087
0.0285465107700035
0.0195766270397225
0.0194986679385769
0.0287407342924453
0.0309650049590469
0.0209329775891919
0.020961982878446
0.0310378885682009
0.0309645299631238
0.0208572524854886
0.0208550780500037
0.0307303115215266
0.0339659074624863
0.0228335231624656
0.0226940627952307
0.0338457017003918
0.0328952787989925
0.0223013281981314
0.0220335615377938
0.0325181233533602
0.0313466605323936
0.0214771601284124
0.0205905988088107
0.0304853324709472
0.0325567569227592
0.021174613233641
0.0214195428819419
0.0352181891566982
0.0380346336650841
0.0216603337152948
0.021524374496465
0.0383282940810446
0.0356884355415587
0.0438688113282695
0.0344402494069122
0.0204834176566883
0.0196441925143036
0.0340499366507891
0.0338504353447323
0.0194458866783935
0.0190918287586217
0.0317738407500378
0.0301325119744697
0.0184918268881546
0.0182069273815947
0.0281046546541706
0.0171912324209802
0.0164980136516967
0.0162089977841133
0.0162998884245627
0.0157435970612401
0.0156687897283448
0.0156028292111072
0.0155606401733655
0.0153306458797431
0.0152787687822658
0.0155796114224418
0.0250896304113355
0.0234639704438434
0.0154393114838444
0.0153375125378893
0.0219274028611792
0.0219030706124252
0.0153350768152735
0.0156238662146912
0.023445942453749
0.0215816714790219
0.0155561019492986
0.0154935970814749
0.0214793801555703
0.0203315704005344
0.0152521005439252
0.0155951508213647
0.0217356262985081
0.0218274447686593
0.0159746095284545
0.0170583725260386
0.0240196518799306
0.0245795977186035
0.0176643650825339
0.0174956614406811
0.0232196095319665
0.0250053875126805
0.0179216821625069
0.0187672372547086
0.0257188484124645
0.0283887606553351
0.0189356849898761
0.0200882069426349
0.0311463659383311
0.0320968366948168
0.0206815063948751
0.0228926189018764
0.034904277126713
0.0399956519675245
0.0334743951223837
0.0353288400292655
0.0444298568878204
0.0387624929884173
0.0232287668036975
0.0240055788613932
0.0387737042633175
0.035985421875228
0.024758353589736
0.0245315725984857
0.035736347824984
0.0371856443970545
0.0247765806279834
0.0255301167481722
0.0378643892127666
0.0380495268724273
0.0252064483360859
0.0254495358729785
0.0384531576404805
0.0400761291800271
0.0257826402590782
0.0257903830628919
0.0403098253229881
0.0409335380612652
0.0258381859497808
0.0258230970275038
0.0408640830622795
0.0406234577139902
0.0258209465150113
0.0256596225000914
0.0402713696169248
0.0395155096105553
0.0254673026272476
0.0251893067129703
0.039190255868386
0.0385850114479786
0.0249059169408559
0.0237740283054885
0.0375417259635439
0.0347205573644493
0.0223598623018581
0.0227074618579373
0.0390266329847036
0.043981113848556
0.0230635893000164
0.02349239810338
0.0506308996950202
0.0411916489978296
0.0218400797781957
0.0221188591573302
0.0451549462744279
0.0443650699155797
0.0218397906250523
0.0207976569218954
0.0367266722183486
0.0487821968548639
0.0393409295089974
0.043115808839421
0.0537893532361064
0.0395159081440071
0.0211030752626198
0.0200988153414375
0.0390734353235865
0.0364305132650706
0.0197923792574202
0.0196486517391065
0.0367487838851253
0.0343384554344783
0.019215689409421
0.018624654450347
0.032440301781394
0.0317553661079495
0.0192401115772441
0.0190258669312445
0.02949177153141
0.0171752987611967
0.0174010917804262
0.0168660607107334
0.0157772910836493
0.0158367328470003
0.0156464219597272
0.0160434428705997
0.0309697656763672
0.0282546157188532
0.0158910309847289
0.0157691559148539
0.0257858083851118
0.0153870875677606
0.0151976512920208
0.0151919524197411
0.0154380793776203
0.0233957114740433
0.0255820914030292
0.0157144512759913
0.0156972915370265
0.0255071639001934
0.023412358928129
0.015967083376195
0.0164559085166703
0.0259273632163881
0.0251553359777643
0.0172711556160893
0.0178680881642144
0.0256114909809919
0.0261988859466539
0.0185438871374475
0.0181113980866594
0.0262497934298409
0.0269924450890954
0.0182037525048302
0.0184363788006372
0.0291535640483644
0.031028917315568
0.0191843792728037
0.0204274152154142
0.0348791590620086
0.0332486789216765
0.020823812137291
0.0209601640679622
0.0354523608971002
0.0375528893270844
0.0484512102907515
0.042667102015321
0.0235216112882107
0.0243903854134866
0.0436386482204275
0.0412224830281775
0.0259723888734145
0.0266323605837662
0.0417064652305599
0.0449854362607896
0.0267283616695786
0.0267402118309954
0.0462880747487516
0.0466997511323527
0.0268712693040368
0.0273784624861067
0.0487466394609931
0.0493062525846117
0.0271605869803923
0.0274753344007963
0.0506418076412094
0.0511930281243906
0.0276174279593557
0.0280099127549955
0.0527524734600467
0.0545393069154791
0.0281913581843265
0.0282386831340979
0.0552520945726798
0.0553559435923588
0.028087763590835
0.0283717395498465
0.055899932663392
0.0570364786187075
0.0283717815261597
0.0282832108746016
0.057082279436729
0.0570170585812126
0.0283417811122853
0.0283479322439397
0.0567026175278088
0.0562789684012261
0.0284711400653996
0.0281871583618369
0.0554831625015312
0.0553128492487943
0.0282077589775881
0.0280635128988365
0.0542387408986211
0.053282503012407
0.0280090742335749
0.0276481829837865
0.0518310227385616
0.0512983675889345
0.0274722033239476
0.0271010827550921
0.0499685136609713
0.0491101550420001
0.0269054961909617
0.0262897789560857
0.0473295548377242
0.047191536661851
0.026093465411833
0.0259772786217339
0.0417889318921998
0.0432815686843357
0.0265938329865548
0.0267558047201221
0.0436445197446389
0.0442597105584125
0.0271018724249945
0.0271934442156111
0.0442704860557189
0.0450866121316063
0.0275589653241649
0.027581598927973
0.0455808358078089
0.0462488828258408
0.0277753455444043
0.0277192684173076
0.0462774501820003
0.046754766242956
0.0279566585246696
0.0278540563475306
0.0469098997157762
0.0471631791418582
0.0278708789248946
0.0278381223315955
0.0471535171395352
0.0470925288009204
0.027876520122945
0.0278420807433571
0.0463599947332915
0.0460502159084804
0.0276509481615204
0.0278106670851287
0.0460368943741952
0.0455252611660321
0.0277063670198461
0.0274926049934512
0.0440533715931385
0.0431861562143634
0.0271216486681129
0.0270591981668229
0.043009198458247
0.0423879248546924
0.0267621898765978
0.0270876605572715
0.042294533133428
0.0409181885634335
0.0265847184409368
0.0268267151668678
0.0228657514389891
0.0204834541325649
0.0179139664620917
0.0173708159173217
0.0166262171015662
0.0164762990827776
0.0159052662045581
0.0157882859766401
0.0157547686120921
0.0154965341825147
0.0154185130536792
0.0158621655836865
0.0279424848250877
0.0281004137212865
0.0159500208091731
0.016146807257475
0.0309564368587559
0.0286631364590992
0.016789372263922
0.0173486177114324
0.0284469040762525
0.0268332349800749
0.0171998480964733
0.0182357096837673
0.0278493315095731
0.0285533305337965
0.0189507552889587
0.0184207123990381
0.0283360374582566
0.0305932670253177
0.0186094133165966
0.0186833050976409
0.03134720765122
0.0338765309263608
0.0195248926167338
0.02107108810835
0.0392678280575334
0.0374825832274503
0.0214945515920265
0.0246659898476311
0.0403051719364693
0.053484183736603
0.0468963977381717
0.0496489496822209
0.0248365170868688
0.02642414492512
0.0481640878681098
0.0523023151897848
0.0271216450200171
0.028184704377272
0.055690557524256
0.0583937508624023
0.0282783906255783
0.0282635751460952
0.0620124323807894
0.0630326386735689
0.0275916546235569
0.028239645351406
0.0656840270026989
0.0667848009260137
0.0283243894094193
0.0288064834258943
0.0692623165991582
0.0707516268305408
0.0292611087829354
0.0297808967906108
0.0729100758830166
0.0744297455837922
0.0300761522938651
0.0302767755383339
0.0747879020239769
0.0750364395412842
0.0303534170112221
0.0308219027075101
0.076059265109571
0.0779077038157304
0.0307886268933292
0.0307034272621528
0.0777605745967144
0.0775155364531814
0.0307995110261366
0.03070417922653
0.0772618801618765
0.0765454289167166
0.0307692605428561
0.0303596234084618
0.0755627655732188
0.0754312424513813
0.0300961877035596
0.0297838857911896
0.0746109380402895
0.0733323153045896
0.0295172781361796
0.0290745626071735
0.0711299343768275
0.0690098269716426
0.0286262215429261
0.0280805197828167
0.066502398893534
0.0658191048466243
0.0277174855829726
0.0270061950625129
0.0645391568966203
0.056881039015865
0.0259460059973987
0.0256924601214013
0.0509726035407788
0.0454910275479968
0.0242390049270187
0.0247455914702417
0.0548947329675295
0.0675622560441887
0.0252615224473397
0.0258292485139659
0.0867957178644254
0.0592006354875384
0.023915057180487
0.0243379626475086
0.0713427705129309
0.0490464707085882
0.0222673449871553
0.0225046231042861
0.0548410321470284
0.0521029393734002
0.0220981284987541
0.0223406741850046
0.0617821904515716
0.0483961627272066
0.0598747271316902
0.0429829950079492
0.0233081996935844
0.0218677489402819
0.0419952225895101
0.0433375266304248
0.0215361129701478
0.0203273226184581
0.041211853941545
0.0373051029752139
0.0193459634782342
0.018737695390025
0.0350423228241453
0.0342978544832658
0.0193165266078582
0.0197842221735222
0.0350900678488602
0.0321352084683948
0.0197579823594999
0.019169106269781
0.0310839661171939
0.0289888315844404
0.0176047101498248
0.0176599296945559
0.0306991555807453
0.0314617283362646
0.0172930372066572
0.0174454631226017
0.0342375160984416
0.0342408282265565
0.0162299614780737
0.015844003712832
0.0289009560263746
0.026821744782094
0.0157262719593322
0.0157269670856135
0.0266773270524159
0.024973015045058
0.0155783041432755
0.0152760801132194
0.0153773594999496
0.0155503577507252
0.016044984803239
0.0305893014456071
0.0338456882798506
0.0163104341521052
0.017523327111071
0.0342722817751787
0.0317818664742446
0.0174971974157132
0.0174373675149358
0.0315692191252525
0.0298414458944548
0.0173229596659326
0.0185186626723183
0.0329238833298822
0.0303370303274392
0.0183897630471455
0.0191054210170745
0.0312270147160632
0.0341818070991831
0.0192161085305217
0.01877826292132
0.0330334293073369
0.0337798600853011
0.0189028668871948
0.0198507459009471
0.0371125462612537
0.0442189309918576
0.0214191027235652
0.0217954335197613
0.0424336472771396
0.0475208632391955
0.0675398379002897
0.0574468958136032
0.0254112437290535
0.0256053104774229
0.0661070467578039
0.0699363154250411
0.0273260872157066
0.0280500911632322
0.0887285782574756
0.0968930701263398
0.0289190484135224
0.0324310506284348
0.135635201477642
0.136502117574712
0.0326234830013942
0.033959664299933
0.142841199269328
0.156396821819008
0.0381154022042008
0.0444974155236355
0.156126348905848
0.179438072109647
0.0495293982363685
0.0505889764962058
0.187666781569955
0.191862325324813
0.0503123075618726
0.049462483092154
0.192359988799818
0.193155418170598
0.0495981555705486
0.0492255741296084
0.191559273394197
0.190653831370733
0.0497054735173751
0.0493004256747307
0.188013487500315
0.187483767531418
0.0497502750005249
0.0494238530153374
0.184811214053938
0.185350146207642
0.0499126458947819
0.0496440072125723
0.183968650631618
0.185960864361131
0.0502508195073493
0.050321170642442
0.186209620950306
0.188949522861171
0.0509026912246541
0.050642539556481
0.193024965527989
0.194437210227651
0.0506723403439954
0.0503988448727915
0.192506535782845
0.191674163295297
0.0505722794575966
0.0508954076490908
0.191497388994809
0.19054692240505
0.0504782677436345
0.0506927999796274
0.19236467669597
0.190738009839078
0.0502803563437158
0.0508403781512985
0.191879430608816
0.190179889737897
0.0503261708601201
0.0504663302639762
0.190866416835143
0.189814154764522
0.049926796174884
0.0502417619375684
0.192068997105139
0.192365407919904
0.0497756344125493
0.0501595324559387
0.195695886882048
0.19708180611997
0.0496624510418836
0.0503087114669841
0.200009893455479
0.200315215977438
0.0504494876621896
0.0515123069585225
0.200156933166201
0.195481385327231
0.0517391565386642
0.0504622512721198
0.186157560894019
0.160878552527542
0.0452445984796324
0.0393277593897343
0.162132654729113
0.152376356855285
0.0354891430966575
0.0323873606966912
0.149933094227842
0.101701730169067
0.0274161217471825
0.0267487971333115
0.0843048059918323
0.0732692513877446
0.0264254408188564
0.026012443235265
0.0635958399333613
0.0774900968487859
0.0275460523805993
0.0288603552715939
0.0940177458904523
0.117314523462591
0.0300673549180539
0.033120484621753
0.117360809350139
0.12159832523027
0.0371832896527133
0.0438509907155143
0.137997409605822
0.147703831811262
0.0495203805171783
0.0506779202668365
0.153278581765132
0.157633402840394
0.0510094089901719
0.0495536708691737
0.15988041367644
0.162213241310683
0.0494739899564306
0.0483712053920976
0.160837111472121
0.161657557609622
0.0490226897350566
0.0483591615440187
0.159164656128591
0.160317502369104
0.0489679639615826
0.0484471940270402
0.158302248963468
0.160063536118478
0.0490951552873964
0.048825177190008
0.159463991828815
0.161329202725797
0.0494458766648587
0.0487930199200974
0.160781277437524
0.162125307591636
0.049272769374453
0.0490185987116262
0.160716370382031
0.16162090188088
0.0494391265241386
0.0491175572574514
0.161878689904508
0.162176372429887
0.0489819976575041
0.0492496934790711
0.163634492397256
0.162817026659229
0.0491696086524845
0.049434954874334
0.159204661684854
0.157172664728754
0.0488322249913251
0.0488197555916748
0.156700204970923
0.154798558220963
0.0481597067647403
0.0485656846227477
0.156052067317958
0.154695683111345
0.0479660590006149
0.0484785416326709
0.1570323712258
0.156103129069766
0.0478974329239035
0.0485696637030957
0.157910047967255
0.156837151979305
0.047953207851287
0.048695381271379
0.157039581198096
0.154130706140488
0.0485190188717916
0.0498084014623152
0.151913060097959
0.147838596750997
0.0495937857244529
0.0485434620534987
0.142892663142378
0.133924396476978
0.0431280912707759
0.0358530162692004
0.1191030598204
0.111069256265696
0.0414247220517139
0.0457657945193981
0.116571742445191
0.119788884815671
0.0466073168780549
0.0474229555722907
0.122864824378955
0.124179058952062
0.0463550107076959
0.0471804887516065
0.127019025984191
0.126992353664417
0.0462123168189872
0.0469544343843607
0.129406128941068
0.128195300477453
0.0459231242911746
0.0466833445871215
0.130099913960465
0.12804584711087
0.0459358625079827
0.0466715640130878
0.129797683021839
0.128745925883518
0.046108914916364
0.0468097954344795
0.130346882390601
0.131015352420167
0.0467628142587888
0.0473742433067888
0.13231296430334
0.135442693264514
0.0471006849357739
0.047226927345791
0.135931897549582
0.134857939379813
0.0469678669291551
0.0470526084218571
0.134783759254816
0.134488124549438
0.0473631886714665
0.0469699740948808
0.133827058396519
0.134857750691771
0.0472605451155138
0.046719358464217
0.133770471465115
0.133883661151005
0.0474796236695929
0.0467381158963832
0.132180747739978
0.132652618498439
0.047164395178429
0.0463869616420007
0.130581512597001
0.132395272371502
0.0471739241466099
0.0463611633481346
0.130275075882055
0.13220580273022
0.0474246857867871
0.0466273884224117
0.129858238069394
0.131156967084909
0.0479699020507559
0.0472742819550379
0.12854595016373
0.127098811412202
0.0484792650316327
0.0475624901198449
0.123825510960873
0.120205621494316
0.046712371801442
0.0421136037662364
0.11437360669103
0.103593076226982
0.0379665573210247
0.0328086901429136
0.0950508785061462
0.094038225047956
0.030626701078186
0.0287933523425551
0.0780468773675693
0.0791338084109127
0.0294079694401978
0.0302349657137715
0.0828908553130659
0.0862391955871981
0.030565356534942
0.039301798759226
0.108527742021804
0.112136788453784
0.0389836247805597
0.0386562466809851
0.112941077611397
0.113138080648254
0.0385843391664508
0.0386763550438378
0.113234886762064
0.114449708388564
0.0389628875203567
0.0388121972464341
0.115558141481281
0.115582158396574
0.0388998232054133
0.0387403595368172
0.116129914011132
0.116722880475069
0.0388667550847171
0.0389765671655092
0.113461097569049
0.111691936701033
0.0385275998480531
0.0384003171988148
0.111213655541136
0.111365842877463
0.0383254221305664
0.0384586098290182
0.110501152037405
0.108406225559144
0.0385161079660837
0.0387127899361702
0.1051230891493
0.100671385634806
0.0372269537008334
0.0318391869329153
0.0939061081167699
0.0896996438487563
0.0292861298611841
0.0316621924894123
0.111322212673014
0.108097862103349
0.0307129356326896
0.0302789524242363
0.106571024083804
0.0805075514780945
0.0284497924964917
0.0275821225270279
0.0665756778723095
0.0696753592619167
0.02829216574329
0.0292349165670823
0.0852791048633767
0.0879490259172416
0.0291730191812657
0.0285238956226701
0.0728450031420516
0.0742991438242616
0.0281520341188642
0.0290042327766227
0.0782978313411221
0.0804351717077449
0.0298078673176728
0.0302625393631061
0.0837329004179246
0.0855392717934612
0.0305084898883569
0.0312683770933563
0.0865423757739329
0.0868055920580232
0.0318076497792494
0.0321865201243509
0.0864581206583971
0.0864562014451838
0.0324447734727901
0.032993451803022
0.08762729095975
0.0896564255869673
0.0329889547572498
0.0329073927750067
0.0894105145988422
0.0890875820803368
0.0330096408664009
0.0328681516150596
0.0888498709754375
0.088336813959087
0.0328350623242511
0.0323333168681891
0.087648307667474
0.0881461444196894
0.0318405584385414
0.0312629200556024
0.0884723382298926
0.0885814647556172
0.0306959544119856
0.0300868840120875
0.0268244619726805
0.0263773981703322
0.0258551828659475
0.0252417665665399
0.0233827651736444
0.0232157841603857
0.022874981197919
0.0225612121302298
0.0201166026261956