/*--------------------------------*- C++ -*----------------------------------*\
| =========                 |                                                 |
| \\      /  F ield         | OpenFOAM: The Open Source CFD Toolbox           |
|  \\    /   O peration     | Version:  2312                                  |
|   \\  /    A nd           | Website:  www.openfoam.com                      |
|    \\/     M anipulation  |                                                 |
\*---------------------------------------------------------------------------*/
FoamFile
{
    version     2.0;
    format      ascii;
    arch        "LSB;label=32;scalar=64";
    class       volScalarField;
    location    "900";
    object      nut;
}
// * * * * * * * * * * * * * * * * * * * * * * * * * * * * * * * * * * * * * //

dimensions      [0 2 -1 0 0 0 0];

internalField   nonuniform List<scalar> 
162506
(
0.0014978558850146
0.00155223758769307
0.00010298739696258
7.88007273758302e-05
3.92611014437747e-05
9.52642692348769e-05
0.000460209883210198
0.000530885835026802
9.31985188456123e-05
6.3452477240054e-05
6.95895501098854e-05
0.000885922228745659
0.000936973261714893
0.00130189043266422
0.00293183218675221
0.00332133504298549
8.95290074740614e-05
9.28914178977677e-05
0.0013294408767625
0.00067763016712971
0.000910839488147457
7.98739832024168e-05
8.51389705198455e-05
3.87256376074064e-05
4.36014432954953e-05
6.12590090935603e-05
5.6798416010096e-05
0.00570463854445531
0.000106154563195062
9.820130033991e-05
0.00813491319681557
0.00772327363199298
0.00496191690763377
0.0104499233200371
0.0150001156877614
0.0149413148251706
0.00010060390906203
0.00010981321841527
0.0106572442319798
0.00846450437551611
0.00011312960412919
0.000110713324662594
0.00510528300005951
0.00458204936012222
0.000110746971329951
0.000110631152437246
0.00324887115117512
0.000815504855809459
8.7092606651418e-05
4.53256770808643e-05
8.5177320234115e-05
9.13395592341146e-05
5.00792938050786e-05
9.64921091413793e-05
0.00116102426197547
0.00128196427933875
0.000101217805032744
9.79041602355134e-05
0.000863649242440188
0.00214227464878521
8.25008042049958e-05
8.17069165209209e-05
0.00095503040509856
0.000819821758603822
0.00228427392483168
8.06791876289796e-05
9.25361792036443e-05
0.000109623762017169
9.78209291294799e-05
0.00434997379582884
0.0028350788778319
0.00418211838680808
0.00593917446875394
0.00352955261991011
0.00247417526708389
0.00192470574222799
0.00167936113225449
0.00333998261425771
0.00298436850000317
0.000102682636454872
0.000113684753708988
0.00530335821901271
0.00507055346798886
0.00827173607423673
0.000102931446977297
0.000112842896992348
9.99222216522344e-05
9.0220685603124e-05
0.01010536408261
0.00566214363573457
0.013105079820789
0.0096213158799841
0.0145311342537954
0.0125342015170277
0.00871267835389804
0.0116662853268403
0.0150003104355539
0.0150014781321273
0.0150016939335537
0.0150004404259579
0.0150003378281198
0.0103857523543554
0.0109427968314819
0.000109774133382345
0.000100687871984074
0.0149430644868323
0.00731874188982388
9.82866253321212e-05
0.000107008809621507
0.0056990807158298
0.00570721222032248
0.000110705523580094
0.000113664241897958
0.009313530945718
0.00803724174709716
0.000111183394485099
0.000110076804658372
0.00788060585429587
0.00485660196202809
0.000110957717652209
0.000110719489481673
0.00380568856181467
0.00334348169417467
0.000115616107250432
0.000112466152819341
0.00230401622464805
0.0011258431045506
9.69998655934572e-05
5.41726721402785e-05
9.42756147559881e-05
8.76791004825257e-05
4.83549291778339e-05
7.64222769544789e-05
0.000744207136451445
0.000702715223789187
0.000112256480601301
9.6706027020058e-05
0.00131409120616948
0.0021947948275754
9.3431562684222e-05
8.75989790050515e-05
0.00271945233709967
0.00373634921477075
0.000107805891621459
0.000106073195536916
0.00351606233302128
0.00824550798793522
0.00010640584804179
9.81116792315331e-05
0.00480106224614287
0.00691981274793923
0.000104860806212431
0.000102388987807771
0.00802706331210115
0.00709593859553296
0.0110150974861715
8.65933166572835e-05
9.60092732588569e-05
0.000105912785088549
9.42710965497949e-05
0.0149278963340263
0.00818221008081232
0.0150011149302044
0.0150007003471339
0.0150003448421391
0.0150008107678938
0.0150010929520704
0.0150004690122911
0.013425951691709
0.0142004652207326
0.00869026567203788
0.0104560705226997
0.00703855044265181
0.00489604107614997
0.00126313587594894
0.00278937241787966
0.00312918874763322
9.01386131823159e-05
9.62963321157886e-05
0.00143547388004678
0.00168878198910385
0.00010301706579418
0.000110804747196968
0.00318636681286273
0.00532160360999962
0.00011097003312145
0.000111898355144696
0.00415836625106251
0.005157121922625
0.000110580808508964
0.000108169493144745
0.00276195760142436
0.00275049061503455
0.000105268993799538
0.000108593296615099
0.00251891969739755
0.00135815703155282
8.98323205632301e-05
9.46422696981633e-05
0.00138322980094305
0.00072586027524106
8.7141283990183e-05
8.64043136852506e-05
0.0007205121245531
0.000611269597839726
8.03582178141456e-05
7.61422187630856e-05
0.000697457042995831
0.000640506174808059
7.7731581376793e-05
7.31230042907135e-05
0.000815476447101882
0.000588125928599297
5.39908349277257e-05
5.21278176942284e-05
0.000510160606572329
0.000618403659301434
6.46503098255041e-05
5.75195047036156e-05
3.3209537705413e-05
6.77599273245787e-05
0.000603925157368888
0.000540403752996566
7.23274920110451e-05
7.24089670643536e-05
0.000492184887139768
0.00048090158013224
6.02969057446603e-05
3.58908629237384e-05
6.82125392239258e-05
7.44047526575052e-05
0.000384169507885063
7.05415298215115e-05
3.37067935765657e-05
3.50655175072304e-05
7.43911311267411e-05
0.000503928710667013
8.75688294761091e-05
8.46209987653215e-05
0.000561191899963272
0.000968854518229548
8.65207498997244e-05
8.63005380060146e-05
0.00153041043842253
0.00208065803062813
0.000110609913138858
0.000109303296121431
0.00293802779949583
0.00432465291044495
0.000111644169242196
0.000107226208470051
0.00702568623236515
0.004367822622031
9.5156415319573e-05
9.55660356102865e-05
0.00442217652996962
0.00496043808698655
9.77711227280193e-05
0.000115482266420723
0.00894252027009975
0.0113981303518546
0.000114554596926657
0.000113471019321797
0.0112413341401357
0.00701959242435899
0.000106435108895516
9.44093938728196e-05
0.0149281213369753
0.014786594026584
0.0132768368025869
0.00587756855392127
0.0116691848023063
0.00941396036815034
0.0122216076991526
9.55658058345192e-05
8.70039135293704e-05
9.01437470022165e-05
0.0146904031738189
0.00536387073523146
9.95848829702259e-05
0.000103669221059555
0.00671358328322116
0.00564513698218066
0.000113321578769806
0.000102798780102715
0.00279475877111276
0.00295205906050845
0.00412972792569907
9.71562817687311e-05
0.000110734551116577
0.000113005263042144
0.000102844532633919
0.00766073244916439
0.00509372415703169
9.10195278282787e-05
0.000831315621794236
0.0023509524005769
8.14041087110898e-05
7.01138150351094e-05
0.000880440867929472
0.00101907098234238
6.37795417935613e-05
9.47446502414577e-05
0.000531946421639982
0.000455052904554972
7.79976197611495e-05
4.00561007826478e-05
9.87572153580602e-05
5.99529638243e-05
6.40394001358385e-05
0.000927466326949697
0.000680682239462776
8.46165812937408e-05
8.28992432268023e-05
4.37521591586751e-05
3.95215825712478e-05
8.37543587318252e-05
4.57510321898364e-05
8.63678927454308e-05
0.000777728012954762
0.000875643574054275
9.7500336653843e-05
0.000103776236458197
0.00128205440795669
0.00117347170307209
9.25377824293763e-05
5.03682602870815e-05
9.5388919863645e-05
9.68396330854395e-05
5.3809302042131e-05
9.33021170160223e-05
0.00115154962170886
0.00236298218752185
0.000113799843809526
0.000106890329660799
0.00267102965089121
0.00135434158767315
9.4414889760204e-05
9.52152720159464e-05
0.00128831539851616
0.00135052533201987
9.68184645577723e-05
6.47647334730413e-05
0.000713235780690362
0.000422719393736845
5.19375546189098e-05
4.29922977302403e-05
0.000289032956847532
0.00037398142536341
4.75796184654955e-05
4.21648305006165e-05
0.000287952703237382
0.000385635814314733
4.75420313857036e-05
5.37056776678998e-05
0.000513902814593085
0.000622885141914604
6.21320706857271e-05
3.35179982106648e-05
5.2287001133478e-05
5.30095609569165e-05
3.82970755456936e-05
6.5440414722113e-05
0.000391851707058854
0.00048845414504308
6.65972068580241e-05
6.29073014986183e-05
0.00086457430660487
0.000419055668614675
5.64701138032638e-05
5.08499669162289e-05
0.00038395107292864
0.000313616367366123
5.87200862892929e-05
7.29447001849665e-05
0.000428193059850653
0.000826383411809361
8.04464187373543e-05
0.000110107680767942
0.000836486503400483
0.00131628203361148
8.93537936569377e-05
9.55009533812452e-05
0.00156147305286323
0.00262276018764631
0.000113731354121344
9.82801015007194e-05
0.00289758270522856
0.00413468237185817
9.60083496295105e-05
9.6580916888384e-05
0.00413527171658438
0.00489808951552292
0.000115131377176911
0.00011469470773483
0.00793503934155311
0.0079205675025895
0.00011501185136377
0.000114998183543826
0.00894415785356222
0.00493980940856659
9.64759536934083e-05
0.000100261196316302
0.00754377292362621
0.00319949825505406
0.0077464804970518
0.00777203828805612
0.014737401291701
0.0119517621159244
0.010509452762808
0.00879931548761768
0.0115705873937553
0.0134231028364473
0.0110915330656584
0.00476620924395369
9.85270285518123e-05
0.000105249735266724
0.00819971663755392
0.0034173828136457
0.000105877657845109
8.3066102443204e-05
0.00205766667624242
0.00290586389517356
8.69782808398434e-05
9.27773866415251e-05
0.00256221982181168
0.00136886240251006
9.76325655553243e-05
0.000109872010035521
0.000730111515838332
0.000824807658869545
8.52831212122158e-05
4.67745113785692e-05
7.71459483517964e-05
8.44143212194438e-05
3.39696498097232e-05
7.08170106601887e-05
0.000540745234430558
0.00063564835569168
8.54501553795902e-05
8.61108604561511e-05
0.000724754293700195
0.000668683028829607
7.98670345821256e-05
7.57786503603011e-05
0.000586198907110932
0.000545870872065382
7.6393614672459e-05
6.32750173576529e-05
0.000374527329353575
6.72079231693974e-05
3.27124562472956e-05
3.27011191133324e-05
5.5761515658945e-05
0.000389166628163162
6.15283433509643e-05
6.38141905069457e-05
0.000322582415643682
0.000411157133257951
5.45928372869952e-05
5.25683158511321e-05
2.81023295255267e-05
5.04946335509856e-05
0.000424439537068707
0.000489295541217123
5.72609574828942e-05
5.31325374569089e-05
0.000409135253871264
0.000283414809728869
4.34197241819618e-05
4.00528713388676e-05
0.000259995436635667
0.000246019537313155
3.81437323855434e-05
3.92165638701933e-05
0.000250213902844541
0.000184680988141937
3.64187346750757e-05
3.56035677094994e-05
0.000214232055535595
0.000177738868064969
2.9681187306632e-05
3.7350993386049e-05
0.000190564266534228
0.000259608918495196
3.74557830833075e-05
4.28482392766821e-05
0.00029538756469538
0.000342709928075817
3.77724999886037e-05
4.47163247535361e-05
0.000325415048602138
0.000277048965734449
4.32942497638533e-05
5.52952613652738e-05
4.2811781199116e-05
7.00603332682678e-05
0.000311990198012151
0.000380610640470804
7.36499768167355e-05
6.74541691741807e-05
0.000448634456092608
0.000507092583086903
6.27876476738789e-05
5.64040009508732e-05
0.000444874096019662
0.00043241447872734
7.5570735122253e-05
7.25262124401087e-05
0.000491340771047824
0.000494303377227698
0.000610893269402994
0.000492815711993599
0.000304283813605045
0.000435783446946989
0.000835283463968658
8.29708898210359e-05
6.56654960621141e-05
0.000577809567319209
0.000364048929604185
4.64307129175054e-05
5.11104748080224e-05
0.000461493294303409
0.000754234980967299
6.36759253052858e-05
6.79960160458112e-05
0.000474130002901044
0.000390488166776327
6.02709668300308e-05
5.44093764976415e-05
0.000333840933998237
0.000336759728472382
5.50311008138303e-05
5.30496582965429e-05
0.000499901602891044
0.000950435192009735
7.45133865537626e-05
0.000477775882713757
0.000714439311090371
7.37908499653429e-05
6.30549581015247e-05
0.000583515202472677
0.000505528007489507
6.06631313586182e-05
8.15233135011927e-05
0.000380654542488404
0.000461474825157498
9.74594232080654e-05
0.000107545229973849
0.000651412735270031
0.000663884199489048
9.36361981970986e-05
9.22658559230605e-05
0.000973690074800287
0.00178061653766732
9.22472452632422e-05
9.66572964346544e-05
0.00173006144070119
0.00304944089032266
9.71811365120845e-05
0.000114942641227416
0.00275221343122712
0.00283621594294651
0.000115303442702353
0.000115422758807849
0.00519722923587386
0.0041190806445661
9.69219896569261e-05
9.57621218153238e-05
0.00440126323054971
0.00435110448458395
9.59418779545751e-05
0.0001072345561397
0.00760980250278058
0.00412364944075069
0.000107786496746108
0.000112847483295696
0.00320654289269112
0.00234714676128755
0.000110591075512494
8.3315372987978e-05
0.00187558348525005
0.000897052673364783
9.1757834273498e-05
8.11777620803429e-05
0.00052134591781503
0.000299553078948435
5.48806055848463e-05
5.80955504835323e-05
0.000791852366879829
0.000560324663639721
4.65106017002809e-05
5.68075442714474e-05
0.000797858807708987
0.000585210115691769
5.46491831452518e-05
5.32596967347885e-05
0.000417826800327405
0.000423350095131302
5.47480526452237e-05
5.40188630403091e-05
0.000430799840473734
0.000389122213928386
4.96125409566258e-05
4.82872644315813e-05
2.61102498935065e-05
4.10188480887218e-05
0.000285138507228619
0.000243852447822643
4.25312984604696e-05
4.5520621543188e-05
0.000224931656506839
0.000334929050249473
3.98396631838697e-05
2.46691192132367e-05
4.25919854026622e-05
4.49143029060302e-05
2.66098618287606e-05
4.53864600217632e-05
0.000428935150278398
0.000443372757177744
5.32012038354212e-05
4.368469616786e-05
0.000306406226333559
0.00021739775119497
3.63300262246449e-05
3.853597682397e-05
0.000182587884595938
0.000174546651502594
3.72499093940241e-05
3.2657066720377e-05
0.000129745727899812
0.000127922917063657
3.1982649336839e-05
3.07462640043539e-05
0.000153137335355255
0.000147404462272605
3.34285622489979e-05
2.62139227968255e-05
0.000126295824752024
0.000140706336612392
2.41578300412922e-05
2.97945458714566e-05
0.000168780584273032
0.000213595741533009
3.02038549524829e-05
3.56777060470132e-05
0.000242916018723876
0.000263713118964633
4.08063511228691e-05
3.35307332081498e-05
0.000246855205044812
0.000212271439525291
3.78757442019024e-05
3.89863004664697e-05
0.000204291039553336
0.000265546294457559
4.76820160028358e-05
5.93967494832367e-05
4.76838185623458e-05
7.56694619372643e-05
0.000303463911231268
0.00037010225796465
7.98068359586293e-05
7.31507545414418e-05
0.000430542813486184
0.000575544121072578
7.03186391576079e-05
8.11301260505479e-05
0.000556387969629226
0.000439023210638283
8.01531948343058e-05
0.000373492928705233
0.000294599407966674
0.00018418958089928
0.000124815874014289
0.000137442191783875
0.000211771222170535
0.000223302752617655
0.000156907015029367
0.000281619910669718
0.00047291932988754
0.00065186678304323
0.000108926804373723
0.000110075883853652
0.000962934038489257
0.00158501720922006
0.000113293019826785
0.000113808799519079
0.00159279408052114
0.00170011068237546
9.76804048216167e-05
9.76094535058316e-05
0.00316850529891801
0.00304169287669061
9.69321313189768e-05
0.00011520709140583
0.00303918830554717
0.00171384655411945
0.000111093841539913
0.00011260729053553
0.0012938810912417
0.000936020688978964
9.50946708206202e-05
8.26729474964093e-05
0.000963768149968379
0.000412019129896232
7.35968604174106e-05
7.27981077660884e-05
0.000425985205042036
0.000409506424076027
4.15976003966861e-05
4.91297530578591e-05
0.0004640628667049
0.000444801747939098
4.79929804806277e-05
5.22985018387447e-05
0.000328558295356678
0.000287836836469856
3.9314234283208e-05
2.58785293209511e-05
4.45204325886656e-05
4.64368502625441e-05
2.96952585818852e-05
4.12314860188957e-05
0.000233902810847387
0.000200666086503905
3.53594587794742e-05
3.0225310450414e-05
0.000230054196292455
0.000189767542308052
2.84275349101208e-05
2.34430819480964e-05
0.000175374491176881
0.000148585601607408
2.28056495896643e-05
1.74696644712834e-05
0.000125686681603889
0.000111504350105226
2.2251538752694e-05
1.8263105170606e-05
0.000107238915568392
0.000108835513434571
2.23927684391419e-05
2.32851367021598e-05
0.000107702771588812
0.000106161118354968
2.29551692714552e-05
2.24740612957692e-05
0.000106189274169683
0.000107971249063156
1.82080092395394e-05
2.24140359002743e-05
0.00011737530501024
0.000135229142523926
1.78668762023868e-05
2.32391450244291e-05
0.000155032051385053
0.000189039908438351
2.53610026517596e-05
3.08961557228947e-05
0.000212755829954712
0.000181851390895467
3.07861000343755e-05
3.30032792117835e-05
0.000175210907083026
0.000160711611583409
3.89493715692869e-05
4.30002937157107e-05
0.000196470359093227
0.000204805763684029
4.97662385111554e-05
6.12512338562968e-05
0.00029299243591086
0.000348136730510016
8.32230534328736e-05
5.38950364164671e-05
6.98093763379626e-05
8.08829890174524e-05
5.87387595007823e-05
9.37479206502931e-05
0.00044743192945996
0.000549858832068428
9.58187569837702e-05
8.75281866598062e-05
0.000419007551830819
0.000454575359032727
8.08837208735496e-05
7.61955378583908e-05
0.000495676907051661
0.000570260215103345
7.95993796762834e-05
7.68532801899875e-05
0.000570931508023104
0.000522072253068343
7.24894523703067e-05
0.000507748026977628
0.000360860832664547
0.000410880152409866
0.000383227509527391
0.000434779305442464
0.000508640018980866
0.000626713271414564
0.00011164130183866
9.79976669382587e-05
0.000761071025087138
0.00105715646711388
9.56964817823393e-05
0.00081628065108698
0.000767053740921263
0.00072095908706009
0.000944725841126175
0.000110154531753798
9.55801945281804e-05
0.000977457239505285
0.000973290458205663
9.27838592992969e-05
8.84782520455646e-05
0.000949313731439766
0.000595193196486284
7.66661145256707e-05
6.59923734368458e-05
0.000713737132389047
0.000640006647524982
5.96347758903998e-05
5.95974471841154e-05
0.000727444495640097
0.000593528516632253
6.46380608747581e-05
6.52962717358266e-05
0.000429555974546588
0.000345291281248322
6.14344103893392e-05
5.35197250640775e-05
0.00033239103403102
0.000304398169680358
5.12135335211789e-05
5.02335444897281e-05
0.000255800482899026
0.000220501580796435
5.84196943307015e-05
4.9102527683642e-05
2.98471813740477e-05
4.30336064637969e-05
0.000216289365934471
0.000181954827421034
3.62378617140721e-05
2.86883177187037e-05
0.000197015754371521
0.00019046352840836
2.44363265673139e-05
2.08143002770696e-05
0.000129799971658772
0.000145720075625291
1.61695352391877e-05
1.79076731749317e-05
0.000132797360320954
9.70155684107048e-05
1.99267120653125e-05
1.60220811447119e-05
9.71469957587723e-05
9.48603331780786e-05
1.92260047045225e-05
1.67147251317201e-05
8.57134100089385e-05
8.0677291872986e-05
1.90605536462306e-05
1.6944192365999e-05
8.35336531436002e-05
8.96785322306743e-05
2.76355912312332e-05
2.08057622732245e-05
9.7331501506806e-05
8.17784625096913e-05
2.4938412883601e-05
2.61607109331447e-05
8.68662791518517e-05
9.38692626600461e-05
2.98940557010285e-05
2.78314713312397e-05
8.9512071400775e-05
8.61502941744461e-05
2.0881918110725e-05
2.47866410595992e-05
8.12874214389893e-05
9.26706584729054e-05
2.03158376150754e-05
2.29958616585934e-05
8.94727784619854e-05
8.32482722208889e-05
1.65591985219138e-05
1.73264845197597e-05
8.32128369089372e-05
8.76580890424528e-05
1.70545387431994e-05
2.06612722694842e-05
0.000102384924378267
0.000109524461512291
1.66251404211208e-05
2.036591881416e-05
0.000107124547741968
0.000145967902118657
1.8641180675331e-05
1.78460463180306e-05
0.000182423009047429
0.000153832875374297
1.86601945373992e-05
2.0812514610317e-05
9.62706578005719e-05
0.000102183462513451
1.57647257243092e-05
2.25133759859624e-05
0.000104187556233712
8.97236595973371e-05
1.81195234793758e-05
1.78719246901015e-05
8.17624883108219e-05
7.96336109795733e-05
1.67261729735899e-05
1.97033333203434e-05
9.03438994813331e-05
9.61699478328722e-05
2.0803973223698e-05
2.49036902717113e-05
8.49412914626804e-05
7.92994032912777e-05
1.95841133688676e-05
2.52003081841392e-05
9.51153459079744e-05
9.82147256120662e-05
2.60332411924182e-05
2.46689964068114e-05
8.74642620802338e-05
8.87628569014579e-05
2.60164462807221e-05
2.08658165795341e-05
0.000103889091316993
9.41482167470085e-05
2.10982070792723e-05
1.63234036356483e-05
7.90018323060184e-05
7.92565088045915e-05
1.83525153736439e-05
1.7720191783654e-05
8.82486301794197e-05
9.6077783382597e-05
1.99256221997868e-05
1.56459314758704e-05
9.13689162853485e-05
8.88920937714337e-05
1.97543449565622e-05
1.8510925817337e-05
0.000126947580570409
0.000160890189354665
9.16373283500735e-05
7.9894576383628e-05
6.10239444401529e-05
5.94365854078172e-05
5.97187428288979e-05
6.74190364364026e-05
8.72120574262672e-05
0.000126588485629411
0.000248355361746148
0.000334407273495328
0.000499089672790082
0.000653364133653069
9.51480434755212e-05
9.20634657605142e-05
0.000668960020173308
0.000555466872634004
0.000100821882196338
8.19084673314314e-05
0.000493425161054714
0.000429942598354508
7.27319939338552e-05
7.00768782848582e-05
0.000460681523488836
0.000472276264909067
5.75413561371345e-05
5.61367287489794e-05
0.000519768563546908
0.000410104043705372
6.17381585604227e-05
6.59711109625099e-05
0.000358374118863066
0.000297329488364021
6.49530787673054e-05
5.75347361943229e-05
0.000266723360536962
0.000272670974933317
5.66377486826589e-05
5.2338594901061e-05
0.00021233257126851
0.000197540212919856
4.8546231118165e-05
3.41828856399136e-05
4.496778834793e-05
3.97913242878993e-05
0.000167945423224518
0.000185806608886669
3.07731518003984e-05
2.28786105564098e-05
0.000154398458844355
0.000166571965649739
1.92085894755976e-05
1.96901239129268e-05
0.00011967862752232
0.00010820272770852
2.18971169104894e-05
2.15573159468195e-05
9.83214406994923e-05
8.38159883975263e-05
2.34900601618701e-05
2.27383992058516e-05
7.52690832143212e-05
6.9599190972129e-05
2.25743903737102e-05
2.29123348730218e-05
6.0640051158557e-05
5.42662121630965e-05
2.4195508830822e-05
2.39361594346253e-05
4.96645977995798e-05
4.53264225040288e-05
2.3158180668009e-05
2.09785595133837e-05
4.30354763244577e-05
4.0073955652282e-05
2.29844736904813e-05
2.46021514886168e-05
4.04489931203253e-05
4.02418847214437e-05
2.45934124103035e-05
2.36328699368018e-05
3.98274213246879e-05
4.11957962762267e-05
2.26447615147092e-05
2.3318331522664e-05
4.18831081018753e-05
4.53594490424929e-05
2.24442900418197e-05
2.50317292233982e-05
4.9894484027004e-05
5.56029551005878e-05
2.38608130681812e-05
2.29115308547844e-05
6.16399109801917e-05
6.68977482489893e-05
2.34186524544987e-05
2.40431994024037e-05
7.6715682558598e-05
8.62208504200696e-05
2.34850967661684e-05
2.40566473932305e-05
9.39682982073859e-05
0.00012022065158884
2.33578615378222e-05
2.20942467478491e-05
0.00011819213805803
0.000116855646574055
2.1713580014373e-05
2.24688946014753e-05
0.00014939825372991
0.000142299804556909
2.85285007646743e-05
3.62407773498669e-05
0.00014136874389812
0.000153302155033724
5.12784801233544e-05
4.90814385675005e-05
0.000173769590242144
0.000182557839576754
6.39302799415195e-05
5.32761429910063e-05
0.000223370023078376
0.000250981087954662
6.21345021954398e-05
8.31860731659987e-05
0.000363928019590158
0.000469062938894488
9.54178767273835e-05
9.10507801421365e-05
6.14339404755999e-05
9.86577340835629e-05
0.00061741609517085
0.000756461263086906
9.41274322562184e-05
8.92496206162145e-05
0.000689756771605904
0.000667482314619967
8.33451164349496e-05
8.07577720490163e-05
0.000590791761087425
0.000678343134404254
9.22969070808612e-05
8.08945017657244e-05
0.000732545136857825
0.000958866797423189
8.14174470639313e-05
7.12030912468406e-05
0.000641087764456074
0.000650451964581123
6.57920141137757e-05
8.7092530673656e-05
0.000560728862574244
0.000786182171479313
8.61437881025145e-05
0.000110720080299496
0.00120799149750719
0.00109647001429494
0.000116997563551898
0.000139763816897841
0.000968302011732753
0.000852480859787946
0.000143598180555402
0.000119837922179089
0.000573490626529752
0.000532859784713357
0.000118066306324526
0.000108054663414932
0.000614332919185681
0.000430174399684065
0.000394824978824092
0.000431410365932215
0.000548604479192198
0.000107506009653026
0.00013765684457311
0.000817736347827221
0.000874542549948773
0.000117594634751555
0.00010391894194473
0.000862885486019419
0.000604547842108553
8.49209401958304e-05
7.76103720021636e-05
0.00043089510661248
0.000449129875335353
6.85339005382595e-05
6.1143037357701e-05
0.000429299798689763
0.000477433985070952
6.03366738230788e-05
6.91056721286806e-05
0.00049445803006027
0.000382121828676462
7.59895777460747e-05
7.49038952865332e-05
0.000342646564967905
0.000285085659375088
6.78599035899201e-05
6.8214191166869e-05
0.000317354189827294
0.00022574192475133
5.86828458793491e-05
5.4224739174655e-05
4.34996443784639e-05
6.0494661460642e-05
0.000221273661869661
0.000171866491549548
5.49250962672517e-05
4.79122216641997e-05
0.000185964504208905
0.000182117098090338
4.85947505832347e-05
3.63397873917712e-05
0.000100600739854547
0.000113240960382702
4.83740237011136e-05
4.91538960085941e-05
0.000106748854084099
9.61254181087374e-05
5.14270243450739e-05
4.53727198248955e-05
8.08343714670776e-05
7.85509190486144e-05
4.09704927008502e-05
3.82422912958257e-05
8.16893540537197e-05
7.84610110893411e-05
3.85110497190761e-05
3.71631554848848e-05
6.93756432835462e-05
5.43578776136643e-05
3.54444152859966e-05
3.5254329355209e-05
4.48469066011983e-05
3.8302222305787e-05
3.31933413103819e-05
3.14760275386288e-05
3.47497404807039e-05
3.26608783122584e-05
2.94583855736181e-05
2.88817158550061e-05
3.15296496344164e-05
3.05217953189967e-05
2.74085995235896e-05
2.74423310716181e-05
3.01406833344636e-05
2.96717374732042e-05
2.62794746528418e-05
2.65876094452806e-05
2.971916659912e-05
2.93058068973238e-05
2.64798977615239e-05
2.62841887583273e-05
2.88613247963617e-05
2.86876443967486e-05
2.73002565464162e-05
2.75439296420829e-05
2.95129073472535e-05
2.94748019887892e-05
2.72911562362299e-05
2.70673373188051e-05
2.87873365405966e-05
2.88384293386588e-05
2.70062633211674e-05
2.70555538615691e-05
2.92421900396958e-05
2.94949099478871e-05
2.63129345581847e-05
2.69069287074477e-05
2.89592155835959e-05
2.93810578716777e-05
2.74671095933801e-05
2.7269978574245e-05
2.97807218267866e-05
3.05591320664082e-05
2.82986891430719e-05
2.81663226935816e-05
3.09181394079321e-05
3.18963963115376e-05
2.97395369177813e-05
3.04400420934511e-05
3.3119658465839e-05
3.53829676440539e-05
3.24941066410375e-05
3.38246844287351e-05
3.90236556357741e-05
4.56316117908882e-05
3.61793722783692e-05
3.68100555376877e-05
5.55335072872432e-05
7.15552946473941e-05
3.89990806223273e-05
4.04567763138834e-05
8.10664776046662e-05
8.67642412123386e-05
4.00958794481264e-05
4.31497348818847e-05
7.99428252357424e-05
8.49472688517333e-05
4.60617995087717e-05
5.25301007313456e-05
0.000107205121982367
0.000117540265749286
5.3277688469066e-05
4.2296887841755e-05
9.56732660643693e-05
9.37650419527825e-05
3.27053935025499e-05
2.94298600607596e-05
0.000103156193620446
0.000101483256515261
2.54041630772192e-05
2.66536442735715e-05
0.000108651520242484
0.000112788303178492
3.14551264654359e-05
3.92279282289057e-05
0.000108812755924411
0.000101232840745683
3.73447174893123e-05
3.25994377592506e-05
8.15446379583624e-05
8.07919845874928e-05
3.75498233979337e-05
3.16941705344826e-05
8.30530074411231e-05
8.09665615477157e-05
3.20995388485575e-05
3.12210169749999e-05
6.94298343592894e-05
5.48810941439484e-05
2.9298990972142e-05
2.89961836281764e-05
4.40038174456016e-05
3.71022216104484e-05
2.67537541191543e-05
2.61185409431701e-05
3.32482310070425e-05
3.06726903970014e-05
2.42782205373681e-05
2.41208212895385e-05
2.92855449747232e-05
2.81951626887959e-05
2.25754927361055e-05
2.29561256684506e-05
2.77726416572717e-05
2.71076763820925e-05
2.20296704948916e-05
2.23902476634532e-05
2.67803499233867e-05
2.63200917293228e-05
2.19501942648268e-05
2.13414385993875e-05
2.67372134543928e-05
2.65079169975166e-05
2.19145922556248e-05
2.20601508435348e-05
2.60668287215159e-05
2.60273496998099e-05
2.21006431411044e-05
2.20091739165312e-05
2.66322282084079e-05
2.66953296865833e-05
2.22063804711729e-05
2.22638029871982e-05
2.60815051659173e-05
2.62379112055534e-05
2.1469430655495e-05
2.15592518223487e-05
2.65583586850045e-05
2.6866498685197e-05
2.15938057614494e-05
2.131652064996e-05
2.69124793608122e-05
2.73829892126562e-05
2.24306837462041e-05
2.20789599472938e-05
2.78040037178133e-05
2.88208342680448e-05
2.34539366377489e-05
2.35729327418028e-05
3.0091508148019e-05
3.24649047406289e-05
2.54621155284829e-05
2.63457682792584e-05
3.62395728544696e-05
4.28202658142191e-05
2.82728363769062e-05
2.82416385174751e-05
5.382224005733e-05
6.69522990261304e-05
2.98769470547929e-05
3.0803122127741e-05
7.7909810852205e-05
7.88965644077842e-05
3.03244339276235e-05
3.59874226957494e-05
8.00210143607987e-05
7.83872352494731e-05
3.24958910444219e-05
3.06273148719847e-05
8.12813842298963e-05
8.04727641287009e-05
2.63870390341224e-05
2.71341552742308e-05
6.9645523158404e-05
7.03013671532921e-05
2.65897511613442e-05
2.50193546016192e-05
5.32958058525346e-05
4.67792798594284e-05
2.52921294050251e-05
2.34723732216403e-05
3.58666986996812e-05
3.39401441603129e-05
2.3252738760473e-05
2.12732244464258e-05
2.99162655771883e-05
2.92127088166188e-05
2.16418129759259e-05
2.01084400969721e-05
2.7625075361285e-05
2.72178114567357e-05
2.08423973849182e-05
1.95404715584979e-05
2.64388998760181e-05
2.66598284238798e-05
1.99325676271637e-05
1.9927151897664e-05
2.61932569915554e-05
2.57959552603021e-05
1.98460888120439e-05
2.05598751900154e-05
2.54497667933954e-05
2.6394757223303e-05
2.04083954872868e-05
2.02530747940333e-05
2.64049965580727e-05
2.5394451205885e-05
2.0522240357219e-05
2.04505950778066e-05
2.54635021753738e-05
2.60723675173806e-05
2.02390925031229e-05
1.96838449333968e-05
2.61661237638903e-05
2.57665644313664e-05
2.02545239057708e-05
2.07438027248985e-05
2.65138694707163e-05
2.6789463031669e-05
2.0176980148209e-05
2.12113387027444e-05