/*--------------------------------*- C++ -*----------------------------------*\
| =========                 |                                                 |
| \\      /  F ield         | OpenFOAM: The Open Source CFD Toolbox           |
|  \\    /   O peration     | Version:  2312                                  |
|   \\  /    A nd           | Website:  www.openfoam.com                      |
|    \\/     M anipulation  |                                                 |
\*---------------------------------------------------------------------------*/
FoamFile
{
    version     2.0;
    format      ascii;
    arch        "LSB;label=32;scalar=64";
    class       volScalarField;
    location    "900";
    object      omega;
}
// * * * * * * * * * * * * * * * * * * * * * * * * * * * * * * * * * * * * * //

dimensions      [0 0 -1 0 0 0 0];

internalField   nonuniform List<scalar> 
162506
(
1.03451155151206
1.07662058316909
11.7856351266991
12.4495955063215
16.6335714523898
14.2585703690124
1.59027479469076
1.21832531704846
12.9040129174959
13.6380659727296
14.1861245374008
1.10881810270455
1.11131675907196
1.01921558380943
1.00298014581528
1.00607061050496
13.0955832769873
12.3548788972073
1.02202835684461
1.46606863266369
1.66572443537066
13.3401689868992
12.7729296120253
16.512141769061
15.9606933555761
14.2447932320077
14.3964001911545
1.00632419174231
11.8143756296253
12.5091827051778
1.00241092872941
1.00026635231592
1.00199743006957
1.00002295256293
0.999894478632314
1.00379874722011
12.2940992936979
11.6840030111863
1.00902046930466
1.61901818318488
11.6729974283132
11.6196993871455
1.47101975511144
1.67965428393251
12.4313225016968
12.0560066212745
1.13995596282599
1.65959417976536
14.5181254415817
17.1148226028209
12.4965711782859
12.7377032095758
17.8384613247085
14.99430259859
1.81332865748771
1.52611402230249
13.6490027244751
13.15356415772
1.44843382388457
2.41222071204794
13.8170721867298
12.6470114557656
1.60133023202626
1.03328976664319
1.00676604814803
13.9019360247751
13.036124433468
11.6869158637743
12.002458085171
1.00216326767152
1.00816381901508
1.00253194354804
1.00060269480913
1.00199222690768
1.00655192580237
1.0076096352832
1.12008362915441
1.31298985330786
1.84971977285723
11.9884520741845
11.9532605130067
1.53240108982099
1.00559827973734
1.00179032373505
11.8114412047868
11.6054414901598
13.1762210750196
13.9108967864549
1.00388369298164
1.01000347842577
1.0001177439743
1.00011098865052
0.999955637331666
1.00000184550216
1.00047018640205
1.00002767548913
0.999912158095949
0.999839440607678
0.999860202006111
0.999923084636163
0.999913019575822
1.00004737600335
1.00906660509845
11.6805825250405
12.2896222741124
1.00372031534108
1.00227561733008
12.4965942537601
11.8041478917089
1.00620002187604
1.46887985058881
11.6100199623815
11.6697584662798
1.61850637144807
1.8805660256337
12.724494893122
12.7292531148831
1.88180413746733
2.02042384773397
13.4199648305482
13.0096081631052
1.80742573941997
1.21735188492313
12.396939126695
13.533847370414
2.28593071538357
3.11166185646042
16.2309167336005
18.9490426998581
13.5103126558204
15.823094699194
21.7773447067702
19.4480059468912
5.7282764571591
3.60465061365094
16.8257492106431
14.6522847953534
2.33573182774746
2.66059764166312
15.5961468344117
14.9065291735922
2.43032463960949
2.66618377084335
14.660584242045
13.5245931595111
2.52094274576043
1.83661338762474
13.2115019585007
15.2974366311147
3.19405990816853
2.07702670142119
13.2957415545091
13.602068714545
1.88367044191685
1.01321985960213
1.00525615855538
14.9669423994539
13.9111836296113
12.8154071677873
13.6253564145271
1.00477210537157
1.01060954809059
0.999925128254965
0.999940181051835
0.999911626047218
0.999769543201858
0.999802952410886
0.999922017099728
0.999975860828005
0.999986162167504
1.00050467366971
1.00007362814894
1.000355952341
1.00213503824679
1.01995839328928
1.00330911020319
1.00433200479218
13.0739494123946
12.3333041796797
1.01948431235331
1.07035898027922
11.76287972456
12.0304694786004
1.13312072010521
1.67636166684395
12.4187726233377
12.9948432572516
1.80499517446876
2.01896914395689
13.4132759072286
14.613703710295
2.73500388840297
2.74787700058788
14.635265289278
14.1965467451362
2.60861224709124
4.38029199270417
17.4532095625761
16.5670908634479
4.19649429279494
4.86902317956483
19.8262575220944
20.3775679257914
7.56520514066895
8.23109185088079
22.422604537807
24.5387296041057
7.94558857560041
5.94796122138891
22.6293757553388
24.4155502865998
6.83570311142435
8.93986381888415
32.1975191620249
38.3473540267508
11.0840620823254
12.3822126406101
34.4617232807973
37.312212713118
54.1381401969092
32.0018590860321
13.9696635058875
12.638765713483
30.0771683236677
28.5537268344093
12.2447208790841
11.8794515648222
29.9721653831709
40.5646751166311
29.148390463417
27.4414411064089
9.20545392721328
23.9757894217651
32.5244660803924
28.6462865328181
19.6722240498497
7.81892419052598
24.4908103323984
20.6068732429451
6.08287457275625
4.32475393254165
18.8775360351874
16.6885286341527
3.19992000979406
2.95987636714627
16.0787454966329
15.288382195778
2.75583418389754
2.07571437763635
14.863372875066
14.1534856627668
1.98353419835627
3.52581400494179
17.1323343318352
17.1379409159833
3.48581839909172
3.09092059617212
15.3369714145705
13.22637778917
1.69013668455811
1.3200337127135
12.4084189364926
12.4014253890617
1.32872244660472
1.01034386941954
12.8009994457695
13.6086987917745
1.00482128735021
0.999955100549044
1.00005121644207
1.00101021714902
1.00003222631398
1.00459145268398
1.01696278213926
13.8699303063595
14.9182942101574
13.8559395905657
1.00534268420197
1.01138179949545
13.1299495877619
13.2725958664961
2.09852792852007
1.54314530076271
11.9440083309813
11.9906310579986
1.85635087355549
1.00790288623335
1.00225600943622
11.972540526934
11.6715594881754
11.5794549845661
11.7742794626254
1.00203050160676
1.00591030491229
13.0125232349001
1.03252473043846
1.00643529569316
13.8643168160862
14.1613283685457
1.10204411369985
1.1037912145894
13.4366361971044
12.7321861304695
1.31369576139543
2.01800072539035
12.5954318417716
16.0140904600711
13.5478549290824
13.2671852801465
13.7992790565247
1.16681106888753
1.15138163173107
13.1131162958647
13.4797177924639
15.4106460639453
15.380535973355
14.4627940449395
17.0622305894963
12.4681533792743
2.09641802550272
1.55147052891503
13.1431945639637
13.6570872859053
1.65304649664943
2.26257692408503
12.7038601770163
17.7920605648421
14.9512363505519
16.2934154268552
18.9427564602073
13.6840736397101
3.75512486983365
2.36338485849169
13.5186566393593
14.1596722180398
2.59239163318249
4.35624823273568
17.2877612378161
17.8695768576913
4.46159626997894
4.48545878171413
17.9414430997641
25.4998613122217
7.22173515110183
9.75634451566999
36.5057884178033
44.8664089055486
11.2435627988375
10.8285617225689
43.160121422265
52.0920444858108
16.2503963549014
16.1000440348424
46.9554467831205
40.6746641334327
15.540854760833
13.9855630578282
34.4361987056926
56.5133378754329
41.2216049308131
43.8618233728481
54.5480329503455
36.0526117259474
15.0807323634701
12.9391381487769
34.7742006916702
32.4201255144563
12.803429450632
12.0706903380957
33.9712246800563
32.0832267303815
10.4324135487781
8.95286533043872
26.6986808748306
23.89983772884
6.92382104458692
6.47924630847423
23.8072586651969
21.7574071954564
5.71752092987036
3.67188104039177
17.6668698430828
16.8705714790542
2.62164292520338
2.19035890069514
15.6088471897584
19.5022712595375
3.86921915655657
3.73976436453705
18.3531733588023
18.333766182938
3.7455473129893
2.04823516453274
14.8214529715323
14.0847842990119
1.91174658054683
1.91593373884514
14.079362792332
13.2250050118215
1.6904341851611
3.10442748234339
15.3372084059537
13.5831059808355
1.91021897204391
1.2592267707839
1.00128801347252
1.01041974903904
1.01817106505206
1.00081971553085
1.00030750334251
1.00016529232754
1.30022555178048
1.11919385860513
1.35729634269732
3.21761298325361
15.2979869312947
13.2092300858837
1.84654009424214
2.52976277706953
13.5313942359724
13.8231917252976
2.43045622791085
2.47205666594657
14.9296647883089
15.6585113294802
2.76005207172501
2.5522894751809
14.7300956136491
17.1685558271796
4.02698123884258
6.29872758212097
16.4061713775358
21.8708677540719
19.6319306425265
25.0733383435134
28.8459004709513
20.9199051582339
8.65683897076529
8.15128494085657
21.0107175005763
19.7414933888772
4.89570060851625
5.97746772669085
22.1123557987253
24.782073189487
8.62718722156506
8.89711780157306
23.5316461064122
26.0070128689877
10.0167578266448
29.1686910303295
33.5296739971063
43.4679913132276
32.4679319538245
13.5293773074107
32.8248342388856
34.4755887413091
14.8065510904299
15.9709305963915
39.0586987371655
39.4440689044704
57.6531485456989
41.1131603126225
17.5164020200193
14.9898121629912
36.2257948000437
38.1869618883164
13.0359051795139
11.8959692218797
42.5460414384387
44.1945879793915
11.700917956111
11.3348514467742
45.0373081049929
45.3481035508254
11.2924306209961
17.419045267744
54.1899573334395
54.0372164202448
17.2437819047042
23.3480601520886
71.4081928368716
70.0013835305638
22.344386374962
21.5126648951119
67.1428687104639
62.6353677129528
20.682954174875
18.4593470100283
57.2293605420961
50.6730239590134
18.5464872483622
20.9528739343792
59.5349344440234
47.0136726441346
56.0141527446846
37.8577219404184
15.9115923199007
13.1900051258086
36.4490015042382
40.2649835635348
12.3543323133219
11.2927619430984
38.4664266909507
36.0895409654213
11.135560979996
8.26580530451879
30.4490343182016
27.8445552297958
7.59317614661284
5.11681821146354
3.31850089955961
1.67693076630041
1.78021591206442
2.29299872001788
4.54844487355417
23.4465149999787
22.5422101382698
4.7002591509174
4.45792563476576
24.4092321870629
26.6804646210119
4.9395767090151
4.90128258705445
26.0805916077907
28.2894965083233
7.48800196682158
7.23721878424637
29.0030989622028
30.3148249738812
7.14977229592755
8.75555600494597
33.1838380330084
30.603728514677
9.06135270044322
7.05128419766407
27.3166980184212
4.74700295766655
9.43933529184273
30.5869313002342
38.1763547480967
11.7934264714909
11.1791923050788
37.0490695690969
31.2546444829817
7.74504082409894
4.84606964176219
25.4125456866329
25.6192434592607
4.79478870628953
4.82566696296376
24.6199934024071
22.5845745620163
4.6921635455507
3.97868230092428
20.680968418558
20.6445265745598
4.00332730743677
3.88740776298422
19.468332481664
15.5074336429832
2.1224771341613
2.12948987819718
15.4929360761482
14.8127191842215
2.05691630023113
3.76001728574901
18.3120052325944
17.1300896856378
3.50282658167448
3.53833862795401
17.1283019363836
14.1430996593064
1.99325835341619
2.6784490859705
14.6655899420602
15.2818604907816
2.75806865100169
2.94221192879256
16.0348065561309
16.9463069883803
3.51369743039066
4.74528575010742
19.4353666660926
21.58645624883
6.78875715914683
10.0435746347993
28.8417525369664
31.7879857488393
13.5131708721359
15.0204421605314
40.8202084872895
43.2491736520094
16.7971384097607
16.4156867619564
42.3817855493081
47.1531365356146
20.787423832633
20.8367962384012
49.8184905145846
47.5357664415032
18.0412504265586
19.6512086940009
52.3307923082022
61.8651417319302
85.4118280440544
76.2922635153184
27.9273207137337
30.6905611052568
78.2893270677972
71.3668701740253
28.6165698692546
23.7695133071265
68.0227946011065
85.5398556724907
55.544140737848
49.1746328475093
73.4747317140391
53.471773524299
23.545726008126
21.6421175805311
48.6658692259243
49.2830603179212
19.159754457205
17.6693379219709
52.2891840417847
53.3300626049023
17.7637271231424
17.5220500059204
53.8436474542769
70.446208096866
24.2149757357211
24.3430230254116
70.8190161103674
71.1284597913177
23.7008983306981
23.8421706031415
71.1741132013917
96.3635805344554
34.5774886607186
33.8775109628659
97.049151002667
95.7657478494774
32.5647491736194
30.6827935722237
90.7239849222527
79.0964460626022
26.2235012208241
20.529448909091
66.0005413874312
73.8016499810713
22.9469856977548
23.3504951289163
80.7369146497611
83.7874116739895
24.3324904304342
22.0961551096914
65.3065400985025
49.3645935721885
58.1640770256712
39.2756425983086
16.6814747875604
13.4827263367337
37.8996639170536
42.2949891335818
12.6097666373573
11.4104636215203
40.3309790109823
34.3252360567838
9.19910686010206
8.64931200315048
32.8793225413095
5.82423075848257
4.0571427545225
3.84307818686372
4.60376957097066
2.65947953262179
2.29897292338365
2.06316836521102
2.22866374895815
1.45128504007476
1.27249183641756
2.34863801830469
17.5292842953575
16.8676884184513
2.23263106310637
2.16980579763547
16.1810397216876
16.1472526921645
2.15326676315325
3.97513488718648
20.4910508278077
19.4159779299797
3.90510120934662
3.82420583872492
19.4295286073325
15.5312527584495
2.18300624047626
2.89737848201907
17.1087333657312
18.0302808301517
4.05210186698092
6.48928781929076
23.3511622723758
25.7298350282901
7.96640353882292
7.6611536807075
25.6651578203401
30.3760314294654
8.71347853477476
11.6669412263845
35.3628223159342
40.2742477134565
11.9821163725331
16.3074961128442
48.3623632322167
56.2100285057246
18.9530894248843
29.3450144787128
83.4765198228389
96.8267692554169
67.1669321104762
65.9369506741014
95.6114365738842
90.460755184215
30.6107976485933
36.3424755029864
105.460592671671
106.087824421873
42.1751506911081
41.2242036335059
107.557453727536
131.397069764209
46.1209732580467
53.1639153045689
147.586039867687
142.414699683762
50.8707150656423
51.9914131142291
141.386905157907
143.799503665252
52.5060664252952
52.3860099324556
143.928449837603
145.020313809802
52.3224221647544
52.5593534459129
145.252427847678
145.558504544239
52.7550926161024
52.0733037196488
146.107973949411
146.241159693415
51.5359086946684
50.2728983299154
148.139016676397
151.470894139434
50.3416882958467
41.4329473455604
131.418018085266
96.5430493183603
30.6200113866672
32.1097586322294
108.314156680503
113.734056453929
33.8267459003656
36.1256391559784
120.512528315733
86.6151453108585
24.7269815698961
25.9911160032034
90.2470010899003
69.9014909840598
23.1988210580496
17.3791620827366
40.7936223931503
61.4847448007878
51.7827247668479
54.4752611859783
65.6009324837675
42.825140291566
17.9039389115202
14.2909717717511
41.4652489287978
39.4148768820152
13.7632899148086
12.9699591140606
44.394709841166
42.2868945681721
11.5916436582781
9.4370843663994
36.3332212336741
36.5977716065806
10.697815631246
10.3443599119039
33.8867078496142
5.72123618715318
6.36121557877391
4.98221390500812
2.31411801535082
2.48123593944963
2.201915071601
4.32153179660365
24.3354643794167
23.2235184770671
4.20937400758483
4.13151825055792
21.9532316635246
1.91442165514228
1.16199997360152
1.14769853231318
2.21396641686882
16.7715858012647
21.5703540658783
4.02312931941411
4.03198684245162
21.7662168009346
19.7543268658937
3.56330025063179
4.47944017772841
23.1043240580082
28.0427168026227
6.95376796154792
8.82401231324339
33.1647551165573
33.8773758536412
10.5075602877695
9.0402074000799
31.3621835412547
33.1523325633007
9.31359476950304
9.7947228634274
35.530067205897
43.0267543357812
12.533610710482
17.3011146329998
52.3140077757697
55.2908784163797
19.3628732074218
19.5955599609607
57.3789890213169
67.0143768356293
97.1077490727385
95.2686685702378
31.6834907397563
37.9099942634738
113.882200148054
127.134681604358
48.1598706753374
53.897972145669
146.721787405801
192.674080987272
59.6792442727339
65.8973412430837
258.22807935284
295.107399961924
66.8674843074592
70.6927997322311
283.726195960367
277.248584152991
68.4196607575736
70.4983148749473
277.810692283736
277.002129743994
70.9479339050599
73.6741113632565
280.331227516201
285.004768903929
72.8796134073745
72.5338766613929
286.333561803419
286.242406570213
70.9660204773002
73.7542446747085
287.315003017707
289.920755096932
72.906188933349
71.7498705704928
290.103662121118
290.155338544547
72.6990114782505
73.3815621327424
289.771883997235
289.269800860897
74.710850892645
72.0976062160581
288.06501334617
288.435309783571
72.8312112900577
72.4600168175588
286.62687996864
284.169431331662
73.079298178947
70.435943161125
281.266818127743
282.27124112011
69.6558318174217
67.087719459708
281.878606230405
287.215750785999
67.8270462656098
63.7614978390406
298.847346094104
259.130375373438
62.4519112939491
61.9947941838656
247.736564304901
238.773620808147
66.3067359728189
64.9459736791005
232.992851755998
230.227665776902
67.3478307928868
67.0299126708047
227.441941070721
227.761077024272
69.7245890102073
68.7092500209039
228.153003010069
228.379011321487
69.6173976204652
68.4360974033484
227.499370775341
227.753901475365
70.3118003715596
69.3294719509114
227.566145387783
227.72345454483
68.9025319972372
68.2573735302538
227.472192345004
227.233426663175
68.7970890026949
69.2245949375665
225.635243546165
225.172888042237
67.6368901319623
69.2578864606428
225.513649318076
224.948534675031
69.028505175172
69.8436609276171
221.691961659143
220.504588022841
67.170086753242
67.7253436444328
222.222826734065
224.423582312109
65.7322911446608
68.8786322635577
230.975836766476
242.158932124107
65.159050642001
66.3958977317226
36.5768217456839
23.9423676631922
13.2998530826601
10.5596039284539
7.12177255908815
6.01160053967825
3.57332906054292
2.80104738238017
2.46878055261329
1.85854663284397
1.80227423365209
4.13578812731141
22.6569401214433
23.3843070396482
4.32668914380094
4.54521158412934
24.9493035152281
25.1187848650842
5.0617417444915
6.76688531870539
32.493844054934
30.9133542247129
6.54149317832544
9.70635213023304
38.6437771388826
39.9234238210198
11.5086025120389
9.66679470538201
34.4530812736128
36.6066331938092
10.007070166496
10.3537228042978
37.305657658097
45.2933263636185
13.4492902120774
19.0728981095548
57.7640341063489
62.8682461508605
21.2169442744678
34.989634606376
75.5390267181573
105.863348590238
95.3246466742734
123.21544556666
39.703910987367
50.1085935806099
144.62056719884
191.964141825336
56.9200033666849
72.476407755341
290.987674510195
333.522733853641
73.4049877939233
73.9738940225763
314.923826596452
298.797374531811
71.3138119090143
77.1412245156024
292.098704031211
288.683106784267
77.9857387695307
82.2420277413847
294.715444154837
299.856491670099
87.0273641090581
92.3513151854147
305.761544297882
309.722530389747
95.2648621745113
98.8859125494816
310.542318352109
310.995088859358
101.38952874245
108.678791602738
312.95253266112
316.509584541679
107.365132882489
106.373123323588
316.23823211988
315.803323376109
108.11318814859
106.409209389746
315.379006115334
314.083857590971
106.52138119825
100.040662490463
312.267380205746
311.986280747658
95.276118252821
90.908787471418
309.720243307836
305.124349374605
87.7767784448705
83.4223764213703
297.86424922463
290.395037965436
79.0687387933906
74.3669851634997
285.164914926436
294.760060571326
72.8081072126679
67.9502764815836
311.183615966615
256.593414169122
59.3030298496493
57.7005919718003
251.84899977059
165.970515974325
44.0735763894602
47.281924750289
174.481813728267
189.651509264874
50.5199238275589
53.928633011941
212.501266008132
129.26709778993
38.4072964420727
40.6446390349487
140.947882240497
93.5947319924591
26.2855658577787
27.3430697372688
98.5092162208757
75.2089182212246
24.1010866066777
24.6195368711626
80.7072547418189
59.091377016374
73.2849764502187
48.924661051084
21.0627352118869
17.1535580070693
48.0446146953138
51.6549286449179
16.11987975932
13.4823374401833
48.5273697482648
44.4206323469606
11.8039750528648
9.65152037085331
38.1640713101745
38.5776824049257
10.7734938252811
12.2297276127121
45.7243075833846
43.2678307369001
12.254408839757
11.3732599818129
42.1429618482775
33.3178319068651
7.09976254481869
7.11505266447355
34.2656849991967
28.4589519802039
5.77131949787154
6.21837955956945
28.456902479257
25.6359954996686
4.48403780634705
2.57638478138997
18.8749955145201
18.1428023014499
2.48994365705541
2.50549687355677
17.9956214334233
17.3750921015025
2.34163997310778
1.27911798082285
1.47436251938767
2.00333595457782
4.31549876325961
23.7982740849678
25.3019304641012
4.58838347282481
6.2778821594301
28.1431411707152
28.3049779822991
6.16202210061111
6.6455394447787
34.3884969070702
33.4314377134599
6.5062786502703
10.1151292384542
43.6771161071925
41.6939036269002
9.94521153784825
11.7480613837047
43.0870121446457
45.4257625153243
11.8706589482994
10.2939260225956
38.2788343776949
38.9184479683766
10.8276394784195
14.3203440526464
47.6417207799597
62.7652644213232
20.1234588439178
22.1203284877295
71.3770340676804
90.4911333377421
125.807044311065
101.560436535782
37.2981426827169
42.8346719493582
144.560552623844
173.318960303064
54.3173947312799
63.1428161788852
237.035360946364
343.564233492877
73.6521413857327
93.4430958091736
452.253141832011
422.286811065209
96.0551808879346
106.343834095087
424.996546975456
504.408519587617
133.524138928658
169.96241343764
641.69885386514
799.9800655261
202.005892908279
215.650341256353
845.681788566153
860.210746913142
225.875721512911
240.949417279998
863.575262532587
867.59163798839
262.671351930273
284.704343649883
865.807285380521
864.288450765984
304.401290039072
318.905200958404
858.396672451951
856.836291797762
331.640040925631
340.481314216688
850.773076161165
851.690097067179
349.575035245044
354.830027387351
848.567344040468
852.736687156783
362.001330434874
369.9426233613
853.193861736032
858.980912461084
378.000542353561
377.046073747951
867.552685508431
870.499001417977
371.625648111755
369.052894380443
866.439489067357
864.681769574798
376.578649263072
380.54712840992
864.322359075225
862.340957235872
373.404112802479
372.086163129277
866.209650056857
862.834395424508
370.400167771606
369.493261825284
865.325447056767
861.851485562905
361.267070975759
352.77978892821
863.476501926735
861.51043596417
342.995271816709
332.856777275706
866.651792476313
867.745297042964
318.957439901646
303.395621627102
875.051089536985
877.519714045445
283.129562671171
262.707311863135
881.85516473127
879.814134871384
242.589179004315
228.600461512337
876.68993151393
860.469721683692
218.140579006082
203.112723697384
810.70326714798
646.263499551277
170.905200479307
136.11628299385
518.154572058153
458.973883893236
111.205697248599
93.6824329805381
459.023621196819
325.560309027305
67.2934738822728
63.2645052825965
298.866363725102
281.408121500572
61.7135149097463
58.984328352534
265.340167787831
335.558357763335
71.2526729663698
77.9881728607703
367.151662483261
408.050516044904
84.1505255171907
100.072792567735
400.184655471005
434.978312813058
121.860906519273
161.07027016823
586.91733880796
704.761950721331
194.577067725841
207.452300582242
741.732163121667
756.118211998142
216.663007713084
224.592136093494
762.226869895895
768.387648427358
239.800895591443
255.780612685101
766.113421932823
768.039491097548
273.596502495401
287.809237122892
762.24040877467
764.399795615124
301.121470671973
310.846092602773
759.621273638846
763.311175092112
320.387613380688
328.231964827886
761.847281789641
765.879939910081
336.349409014932
337.297418241293
764.613188280361
767.534061464321
339.903337410574
340.914854879609
764.404790797697
766.382458038421
347.401470267274
343.499300253636
766.943648731468
767.597958236767
337.477771152839
339.822263140151
770.80068255231
769.02030332278
343.591239444473
344.450510481957
761.068853888906
756.580200474112
337.221612644187
329.524406022932
755.574832345678
751.391350265332
322.514220924018
317.587091211136
754.32263945338
751.477654882302
308.409956355968
300.22716223618
757.003482657359
755.305136552547
288.036620819836
274.734445677793
759.648571374456
757.219013788476
257.483372114483
239.503777512479
757.070909948553
749.734704062025
222.720927745651
213.855126311141
743.812917760301
730.387875777861
205.079475959034
192.99410221906
696.208405368866
582.212161501478
160.021964588893
118.513325247629
426.014682675936
482.821224944493
148.192898924832
174.362529558571
546.453048557455
567.495959639303
184.637921496488
192.575292497328
578.400829244539
582.470244327893
199.67361237758
212.100725572251
589.338223250156
589.566853000046
226.123748710727
237.882696018063
594.777229022559
592.039404907748
248.744083470842
258.667656453205
595.911102059592
591.34261090671
265.836673352602
274.18637073759
594.971844327753
592.650516154506
278.759594299502
284.801469819165
596.031554649222
597.430751493434
292.318098155869
298.212547998729
600.175112682527
606.764097811022
297.387435709776
295.484991957439
607.78655449237
605.533043235903
293.41139617097
297.247060412312
605.380561106713
604.759996549583
300.866693561848
296.035332610003
603.378001373526
605.558780870787
295.298755442241
291.845425490805
603.294266386302
603.560241342933
291.083220665375
283.744582214403
600.017149809535
601.089045415491
276.611388352658
268.395579564347
596.819851242141
600.820768420272
259.56566567384
248.733474014874
596.461644179327
600.580326528359
237.239134932274
224.78766566565
595.22322540875
597.294987956446
212.771707544631
201.121011613221
590.732072542932
586.424758962828
195.090564420354
186.901263352273
575.558596742303
553.645628958711
176.292869369361
149.383913905849
487.747478671568
400.238247076183
127.670328981587
99.8649488237677
355.246711175082
353.740386705106
88.3867251009906
79.0800231268612
319.20623361844
311.048343305296
82.9589462871875
90.5391602791047
321.773243407274
334.108437230712
96.6949509511433
141.355885669327
426.510434071682
436.164046150335
152.722457807342
170.507862329002
438.796938561408
439.534424981435
189.571003940847
206.040414303531
439.595914859791
441.701690627911
219.338595504308
224.50321183994
443.663950050306
443.675701358112
228.779346718562
226.45712714947
444.66219566089
445.738447812911
227.288511452842
226.566651829969
439.782495144525
436.558814286273
214.568222472292
203.887542134424
435.785730787112
436.236248453514
189.543755770749
171.853146573031
434.634121254796
429.892053858013
152.713039773943
139.751052790182
420.334077425988
396.081320351996
125.668918690963
97.7029876511209
351.514793504675
332.930656013534
82.6610881058834
94.6619087408142
372.427145600626
375.989338577356
87.7679129088337
84.7706398789318
403.154849535957
315.686229008015
70.6803307230774
60.1047664016767
208.490502791589
298.663016072629
70.7263114511935
79.421796912441
365.481357730938
341.519927507237
80.2758073775693
76.0851509039825
321.639077998888
310.009126510667
75.6179777791866
83.0383074705469
313.673497540177
319.581496779459
89.0333836227975
95.2769449296251
329.406202010977
335.64590104462
103.445402271186
115.371444279527
338.901424872091
339.856373319891
125.811707143212
134.951461514128
339.2091096404
339.143797508606
141.84036528881
151.447455813796
341.280230375881
345.001529569296
151.403078476815
150.720637404629
344.557214482095
343.985357255492
152.408071134757
149.293639914471
343.589508453252
342.712493622255
146.538736905799
136.722859808363
341.535090234132
342.47227316823
125.76924080209
113.878825253913
342.511166933253
341.237810116422
103.407726929066
99.9960771047172
84.4111580389404
80.5682129898802
75.883309901089
72.946383121284
63.0279859493521
59.6837906128685
55.5700047343021
53.4199170714999
44.0064725712191
41.9625111361701
38.1464795569039
36.7295778682734
34.0732434473481
32.386176309897
30.5909576933809
29.2903760171627
27.1809392805071
25.4734400513905
23.5560468668975
21.9187482592306
20.1279146213347
18.3427184592875
16.3091762025778
14.6956362895216
10.2779395918544
11.5566176035013
9.23662907652444
5.88609094635619
2.86608682925454
2.03213041517964
1.42544002101327
1.54013313384952
1.62322564491681
2.63628073416821
18.7886990472874
20.7415275561186
3.89655259794302
6.81281329272289
28.9046601193496
37.55265896477
10.8096770866578
8.29723137209807
36.1596257777394
36.969993661607
7.00235697485495
6.57105021161568
35.3626471400712
47.4440724806214
10.1397238414733
10.2161498553685
45.6470328026194
47.7106668880888
11.9669401728228
11.367259897806
40.9904859094585
42.1372389764424
12.2110036733179
15.0310678008688
51.28744472538
67.7531137073826
20.8204532463156
22.7214551247587
77.3089752971469
100.154097101101
144.754526542697
114.968820477128
39.042022155412
45.1735239488482
172.708255557468
223.718401397369
58.557412447797
69.3606125525756
362.181379039799
552.739621156104
84.8827115980018
140.010203902365
826.243390327703
775.619179853784
141.950628734513
171.055467937818
836.689450153946
1113.8663561087
217.131799879681
296.423755712002
1602.11458523492
2128.5586958682
402.487690767192
437.550346045228
2238.28222938112
2241.31236255495
437.575876002809
444.80781648525
2196.95804363726
2125.45615066216
461.515688997908
481.596765104721
2079.49229314976
2110.33275986136
471.541763415091
442.295562645329
2159.21752633785
2193.85367310237
415.626503242511
408.07960659763
2218.62920110574
2224.77738081105
404.840676412626
408.878778138497
2230.07198727968
2232.57190880205
408.395361304484
411.040681006379
2225.40529027386
2240.75533893797
417.231306387817
416.359524612984
2246.51314387812
2274.01051557344
416.708919911204
412.587755153818
2264.74766713357
2243.88199421708
412.99996009359
416.749008147638
2246.16480885433
2247.57134352276
413.680869797006
415.33739871962
2257.77998308467
2244.19345492644
414.927379267919
414.94646129091
2254.40228159961
2257.93899631151
413.231508598443
409.164954350217
2253.71126255565
2246.01302266802
411.04185633929
417.692308848224
2220.62563905038
2185.72652895798
443.689526817112
474.684862430778
2141.40787696957
2115.29049606707
485.545723350835
468.347983345032
2165.65847437787
2238.9901793631
456.685042290269
455.179637639513
2283.25549310958
2274.57360522082
456.014793561517
412.858189893331
2151.72085390948
1608.67799857074
299.111179117277
218.433146288674
1147.79703794102
908.769262463085
169.690904688076
144.93006959406
843.309700610836
524.620847761191
83.277230866024
76.8334135660362
448.984523040058
401.113133493913
74.6435727798198
69.4682148362103
353.912286758815
529.295041502164
101.392219048516
114.362083535593
620.639110905682
726.822751579035
125.892920559085
150.339994245165
766.226337978381
943.230215419547