/*--------------------------------*- C++ -*----------------------------------*\
| =========                 |                                                 |
| \\      /  F ield         | OpenFOAM: The Open Source CFD Toolbox           |
|  \\    /   O peration     | Version:  2312                                  |
|   \\  /    A nd           | Website:  www.openfoam.com                      |
|    \\/     M anipulation  |                                                 |
\*---------------------------------------------------------------------------*/
FoamFile
{
    version     2.0;
    format      ascii;
    arch        "LSB;label=32;scalar=64";
    class       volScalarField;
    location    "900";
    object      p;
}
// * * * * * * * * * * * * * * * * * * * * * * * * * * * * * * * * * * * * * //

dimensions      [0 2 -2 0 0 0 0];

internalField   nonuniform List<scalar> 
162506
(
83410.7907634902
83411.435275617
83411.1190192089
83404.8681795751
83399.1183417068
83381.8545443224
83401.6469890209
83401.3339118149
83379.9113825907
83456.26431671
83459.5694662937
83430.964382147
83423.481610878
83417.482491524
83418.3365537504
83419.149193636
83419.3329417193
83416.4311656898
83418.0473198086
83420.9075240319
83429.185695418
83427.5118195836
83415.9903470218
83430.8856134032
83443.8157273592
83457.8903145452
83462.0035427273
83414.6478508882
83414.5259631625
83415.7275832816
83415.4468377767
83414.5371466747
83414.200379024
83413.491625957
83413.5692886068
83414.3143074521
83414.5183620145
83414.2819579134
83414.1355276331
83413.2075560386
83413.2270990157
83412.0606705451
83412.0052866669
83410.7350353101
83411.6412895866
83410.5808178922
83409.1627770477
83407.0139010459
83395.3209243532
83403.0468600749
83408.9698727381
83412.677135029
83409.9246996226
83407.8019185923
83412.2018210914
83409.8175379016
83407.1706129047
83395.7875143845
83404.9951308966
83407.4642328845
83407.1475666646
83398.5432692498
83404.9775065067
83414.0631590024
83420.8836411466
83433.5943061363
83414.4093942043
83408.7750881154
83421.7261388699
83413.9995438484
83411.1438024341
83412.8273035569
83414.0981763471
83416.7360222206
83414.6436592731
83409.2454297464
83407.4604154723
83409.4099758801
83409.1279285796
83409.1019092409
83407.3461059598
83409.3871212436
83409.3821659187
83411.1638030071
83415.86323964
83405.7328991551
83405.6564025306
83412.7721222291
83409.7384191402
83408.005084157
83409.3045794794
83409.7986292257
83410.8737038566
83410.5006283574
83412.2094573231
83412.6228528801
83412.2302309945
83412.1110794126
83412.454479831
83412.5590493746
83413.8944023491
83413.8356401734
83414.4633168813
83414.5972415597
83414.8103755405
83414.6054595225
83416.2947359605
83416.5547712987
83415.4297637512
83415.5318941696
83413.1118516033
83413.1358900244
83413.60960775
83413.575768514
83413.4668402196
83413.9637169589
83413.4618647634
83412.9514699708
83414.6824779294
83415.1461937041
83413.1048784703
83412.596640623
83410.8610224741
83411.910567184
83412.5884462072
83411.8952545513
83411.8214219288
83409.5845735471
83410.3775028729
83412.2495396148
83411.251748215
83409.7044972867
83413.8406563485
83409.8598226379
83405.1375854327
83405.0015834069
83406.4489770487
83408.7201305968
83407.5212046593
83406.4042506532
83409.6728944365
83409.4884033297
83408.7759916302
83407.959183173
83408.1900780399
83408.9888280216
83409.2639720754
83409.0935749436
83409.8806258823
83409.866472721
83409.2374436369
83408.1546124414
83409.2750403983
83409.3783184925
83406.7099963302
83408.1177153856
83409.1339007561
83402.866670421
83405.2435443609
83408.9199295383
83408.2336933668
83407.7110761342
83409.4117334179
83409.4847932381
83410.8067453412
83410.6485624658
83410.9387060905
83411.0928683295
83411.793088012
83411.4387296776
83413.2411935475
83413.6049076176
83415.4433335858
83415.1618475249
83418.8522468826
83419.6927789214
83420.4188487736
83420.6203929169
83417.7744197405
83419.1491764928
83412.7541800198
83412.4459207494
83412.6767800883
83411.2880469305
83412.3231716407
83413.1808912719
83415.2045532967
83414.637369523
83415.3916763129
83415.8654340433
83419.4303752427
83419.7184022782
83418.550573631
83418.4043957283
83415.9008500982
83415.7094755467
83420.4997595644
83420.5168064705
83413.9587128444
83413.2841766259
83411.4789122161
83412.8572910634
83409.5223212708
83407.864504044
83409.4561322666
83412.0177635181
83414.6287905909
83413.5866317577
83416.8436959019
83418.7500996375
83428.4496999667
83427.8698451576
83428.0772970595
83428.6694235778
83432.7178678704
83432.5393213692
83418.2829141313
83419.4672412988
83417.0300459205
83416.8549781049
83419.2355751015
83415.9335706338
83416.3095839649
83430.7547253726
83400.9179365627
83411.7762400747
83411.2152410655
83413.340160948
83403.4428283043
83396.6787812072
83379.7674017766
83404.0120665749
83407.6067973066
83395.9274453928
83400.509560293
83407.0491944206
83401.9757716953
83387.3898616739
83375.0932567498
83395.1876955623
83398.8909221988
83398.2464822583
83403.4052166041
83404.609950301
83403.2437090837
83401.6903250837
83405.6543975184
83406.6784853847
83406.2919553114
83406.0356324755
83408.8705768674
83408.4998264111
83408.610398021
83408.9132170652
83409.3385792405
83408.7469886401
83410.3551347098
83411.3581428613
83410.7594703051
83410.2443553091
83409.572115986
83409.1111625467
83409.8233139557
83409.9745920614
83407.7338616056
83404.7152410825
83408.719082019
83408.2638641357
83409.6663931661
83409.5783817617
83409.2669739234
83409.6700469957
83408.4673642628
83407.0881682794
83402.7245463253
83409.3653843109
83414.4366045435
83410.8173719481
83409.1686289308
83407.2693759407
83409.7085520038
83410.528726098
83410.6320877781
83408.394620979
83410.2517999603
83410.6035827497
83412.8598791464
83415.7403833338
83424.3306050382
83411.3034085835
83407.5086676348
83417.8165006467
83412.6372768696
83410.7565618468
83416.3415734048
83415.8054929175
83422.749615631
83436.1203881845
83462.1373525662
83432.9551029654
83425.2921793729
83457.6406036897
83381.15341342
83403.4492425071
83403.9250961361
83407.3382576409
83402.3315793994
83384.0647575529
83459.0615358323
83458.2010380832
83431.1049206795
83422.29901812
83417.8158512577
83429.0194639773
83444.3257029711
83432.2533848313
83399.082149222
83405.8576865641
83411.2789669384
83409.4573918405
83407.4175364521
83398.6299764987
83410.5821832374
83413.0756732779
83415.0447348736
83415.3005934062
83412.5453174235
83411.2571170179
83414.6119210451
83414.8189114281
83416.5993473336
83416.3217566884
83416.1735514538
83416.6267310657
83418.6361544493
83418.8008626086
83426.6682289334
83426.2827785627
83428.9416386047
83429.3036102759
83426.7262726164
83426.380121808
83441.2971973744
83441.6576426609
83459.4915604345
83459.4488149044
83477.2553251042
83476.8627811831
83452.3402114192
83452.9313193886
83462.7445521005
83462.1298053715
83435.2223220853
83437.0713049987
83419.5212819126
83418.6836798914
83414.7080404223
83426.3149526542
83418.3366704999
83413.9956577359
83394.0955107626
83395.5584369404
83398.2669881523
83394.2178398363
83395.3985126144
83407.4760446241
83440.5190359073
83419.3739442239
83423.8114627812
83449.2582302334
83436.8202908916
83419.3976120122
83402.2021206366
83390.4250874549
83434.7865044786
83407.3356023792
83394.6312498584
83395.1518819718
83382.7636407427
83387.1102904741
83395.9756901436
83393.0568723293
83393.2611719979
83395.4407019637
83402.4599927103
83401.384459051
83400.7824732163
83401.1337976396
83405.6170632013
83405.5708817191
83405.5265180209
83405.4800009701
83405.8679830106
83405.5551741166
83408.9007497602
83408.743728439
83409.0368438804
83409.1020843744
83411.7475125869
83410.7432280479
83411.3792333638
83412.6617173375
83410.972311487
83410.3956262441
83410.1025038486
83409.9827351022
83410.230809103
83410.6184605169
83410.4662287184
83410.0608900327
83410.5622104013
83410.6065089931
83410.5770869376
83410.6980328277
83411.0626984496
83410.8463606204
83410.6451062594
83410.8562436349
83411.0554880683
83409.9199206054
83409.3771855385
83409.7028886043
83412.7313461061
83413.1427152642
83411.3883680068
83412.2019178923
83413.5519140586
83411.2297220432
83412.2415246781
83412.8235802027
83416.9363081552
83417.9379339637
83416.4098226335
83420.4072757317
83399.0029982899
83410.7241061751
83417.2640309642
83413.167966151
83419.3978731921
83421.2251113711
83423.9368690966
83421.9863404562
83429.0407061023
83430.5100508648
83429.3639499504
83429.0617119914
83423.3482523838
83425.4874579291
83422.0807994684
83420.215014566
83394.0892137286
83409.6561918205
83421.1673426237
83433.7596093966
83431.6744661621
83411.9512066368
83417.8809193285
83436.1921469095
83443.6796827374
83449.6148817775
83435.1786493665
83438.1967499359
83444.6219399621
83441.2129351555
83445.1790574559
83446.7569922127
83464.2716947964
83463.6724320895
83485.4791369442
83485.9387980304
83503.8986827387
83503.5846465774
83508.0793972765
83508.4068569492
83497.9393279273
83497.5201282443
83537.3072287844
83535.2591490961
83500.5186942705
83501.0863078431
83505.8146986596
83506.5444957955
83480.5719000794
83479.2744423011
83451.8818737925
83453.3722860734
83437.9777555995
83436.7992398449
83418.2517601919
83417.8093825713
83403.751980082
83404.0105160694
83373.0572130992
83372.8638977078
83364.4066470627
83365.6486807389
83364.6371198205
83363.7937463637
83362.9519266157
83366.0427616136
83364.2487842555
83362.1911988216
83359.316062884
83357.7141893221
83389.1352916141
83388.1567629663
83380.2980040443
83375.6742820111
83405.744979513
83403.4960727382
83406.0477993842
83397.4966815305
83404.6337689893
83387.8829068679
83366.5132882268
83370.0895932485
83354.5025162114
83392.157250547
83366.1140431326
83356.2999589778
83425.8467412221
83420.793318055
83365.3738482785
83370.7763447347
83393.76817617
83393.4938240085
83369.6668686289
83362.4569243631
83407.7978443789
83380.7817341169
83351.3912503324
83359.4834400114
83383.1200256313
83374.6180085928
83367.416996585
83368.6786394785
83352.6603173916
83367.6930659173
83360.9557272738
83354.4251295265
83353.266174298
83340.4085334274
83338.7072953726
83349.299283853
83323.8067872508
83330.6311723075
83313.0979671177
83292.9389728558
83318.404376825
83319.9747850435
83358.4716085429
83358.4086853373
83383.4894025809
83381.7465451015
83393.7629029615
83393.3498829098
83392.7234730605
83393.2555765619
83400.8698297153
83400.5614630449
83400.8227520303
83401.4994958495
83402.2130787288
83401.4533582367
83405.9614896593
83406.3454290602
83406.8742060187
83406.8568870489
83409.9811962298
83409.590161806
83410.1275430291
83410.3110330042
83411.2961817765
83410.786594034
83411.7164766702
83411.0536155041
83409.950951111
83410.896884453
83409.1834677917
83408.1389211585
83410.6611293887
83411.4279692607
83408.3929416654
83407.7435665747
83385.3213888083
83407.0281955803
83422.0897113975
83407.0220962274
83401.0157217476
83426.9763269256
83454.0617087002
83476.4379746236
83477.8200706305
83455.5325153178
83452.4852201068
83475.3182387538
83467.9986612959
83448.5107279021
83447.6116592627
83463.7912101814
83461.7482085553
83444.3953626966
83430.5395164553
83442.0956623498
83432.5273818367
83433.0282077719
83430.5932765424
83430.6617387656
83433.4682819498
83431.6888427622
83440.5081719369
83441.3442614102
83444.1051941533
83441.8861535459
83449.4818524461
83459.1184331808
83458.1450448568
83454.6859251062
83451.0161099137
83449.8478684818
83454.7679880963
83456.2536201019
83483.0010737287
83480.787755401
83515.4743989121
83515.1203724713
83545.7861760189
83547.9419214334
83556.5983606813
83553.8067823848
83610.933920202
83612.2657846901
83596.8961614119
83595.9343552238
83572.0045388013
83572.7592728946
83544.6892847024
83544.7744240685
83560.5893403432
83559.6008436835
83513.0754997157
83513.8542097218
83475.0195563942
83473.7297996194
83444.4592107533
83444.1700590684
83424.5804478603
83425.0475629834
83408.8554286357
83408.8704928178
83391.4600364113
83391.4792367245
83370.9745077434
83370.6879350855
83344.6960171232
83344.8456991279
83334.44284434
83334.0505945405
83333.5103424994
83334.9143826372
83334.192302697
83333.3749023029
83334.1051418627
83336.4857292801
83337.4916776343
83335.8955613507
83336.9237988583
83336.6878856981
83334.4232516738
83338.2514318004
83357.7861823096
83350.5164519915
83363.461659102
83368.1831865058
83378.1963381011
83372.0629033415
83363.9386442323
83352.966810111
83366.131276229
83379.3939101416
83379.9979034837
83365.5122096566
83359.9713980323
83358.7240411904
83379.5724289068
83381.1668394822
83394.1153179451
83392.874395254
83393.664106471
83395.1033478205
83395.7210813423
83394.8309288256
83402.4209929089
83402.8109041784
83404.1316721828
83403.7483146373
83406.2299960549
83406.8837422513
83401.648248945
83400.2887866099
83402.8517352565
83404.4206141284
83395.895088709
83388.6307015794
83396.8532562158
83405.4289885047
83423.6452376918
83446.2408508654
83418.6775830659
83424.5739453349
83444.3592852316
83457.7230406802
83421.4851275538
83416.9470329714
83423.4470826342
83433.3317110121
83416.2504081103
83417.3294831323
83414.3116952971
83414.1382602461
83413.8655103988
83412.717236586
83394.4940462518
83395.3261542835
83396.4390062764
83396.6467769648
83405.7743620722
83404.9488093717
83414.4525880778
83414.8519130244
83431.9272618065
83431.3577240917
83454.9098534112
83455.8063962988
83494.328320654
83495.3422467342
83551.6885472431
83549.4783902597
83609.7381147385
83610.0322366567
83670.0598528369
83671.4989763853
83709.1828742875
83706.1834805846
83725.1271507722
83728.2500985908
83721.6227132843
83718.6789447573
83684.5419428837
83687.1361953347
83637.8364280777
83637.4446221634
83571.1643951454
83569.5845397663
83510.1552447511
83512.0395034197
83460.4538059855
83460.4531735595
83426.9339646003
83426.0675312733
83405.6647956668
83406.5732714839
83381.8824890648
83381.1809596738
83347.5070540627
83347.6728168481
83310.9740790447
83311.8642295751
83316.125338829
83315.9404953995
83290.7743184332
83290.3959043741
83293.8374824654
83294.6045775003
83303.3145829938
83307.1986761473
83306.4396807158
83302.608326495
83276.4773324529
83282.274110414
83284.97459306
83278.4785732529
83282.9762966288
83289.0918201773
83310.7765228147
83306.5515972205
83310.4615207385
83314.4605009634
83319.2079866412
83314.2905430403
83317.0898744413
83326.8933757011
83325.4776895799
83316.580573664
83338.1609028559
83338.2697211793
83334.1604024792
83336.9056488526
83334.2893450586
83330.1687887957
83320.9753896753
83322.6480955039
83325.2345891456
83326.815105361
83357.868352929
83358.0831666761
83380.0188944983
83379.5066628275
83384.2955833127
83387.4183008678
83389.6020172569
83382.4240275289
83380.5322754076
83381.7135472718
83382.8282253985
83384.7284572074
83383.4881544377
83388.09539986
83391.397111294
83372.294909378
83374.3692925177
83388.5248035543
83384.4131589016
83389.3981002212
83391.5275222674
83398.5722930258
83393.1273794803
83399.4482218676
83399.2900125563
83404.0714221203
83407.1252420048
83378.9593595049
83383.7704391144
83384.5440344362
83381.1927144142
83381.4559919736
83383.9452928776
83399.5903598144
83397.8074769384
83376.3884745222
83372.010512566
83373.3819196802
83374.1293766165
83374.4636982003
83373.9953498663
83381.3195190815
83381.086178295
83387.4759362618
83388.1823338203
83401.3801136874
83400.997740037
83425.9457384169
83425.6685286045
83444.0944234515
83440.6622566853
83448.6557146
83451.6540031132
83476.5313617741
83475.10504734
83504.1186726496
83505.4759601323
83539.5974549561
83538.6586590223
83583.6088612463
83584.7951757813
83628.7035037679
83628.0221946592
83669.8298343688
83671.1242556063
83708.2937281603
83707.4029424007
83737.856123243
83739.0734305677
83755.7491890148
83755.6648048748
83768.6185822615
83768.746143921
83775.4771387836
83775.0341435546
83769.6851474323
83770.1189024586
83754.3451453445
83753.6752862155
83731.0029377476
83731.4275570204
83703.7966332965
83702.6031068538
83663.8347591901
83664.5463910345
83620.6833777294
83619.5515983799
83574.043876209
83575.1733401603
83532.1991246411
83531.2412932458
83491.0877605938
83491.9241231829
83462.3574785025
83461.0224768656
83439.1145514322
83440.2388698038
83418.749266511
83416.4526434157
83408.3706065086
83411.2200482492
83418.1799823069
83416.7344739073
83456.5447288663
83456.4999646943
83475.792957955
83475.8588816146
83510.2845147559
83509.8891910188
83541.2001785676
83542.0480994247
83586.411391982
83586.7776709948
83620.5936713531
83621.2674211633
83667.5603874474
83667.9082652128
83695.0017169334
83694.6339443532
83720.4731788678
83722.0513450494
83739.2227342663
83738.7496003672
83758.0831655139
83759.8747965275
83763.5168185534
83762.0666633272
83751.1978359729
83752.4661199721
83742.7041351084
83740.2263295998
83727.2997664389
83727.925293422
83706.7663527615
83706.0464294383
83665.7272946068
83665.1564097128
83634.5162139468
83634.4571045197
83590.2655190513
83589.294160995
83555.8051567223
83556.2468279269
83517.1449829461
83517.3684517643
83492.7062026523
83492.0296221382
83449.1516296616
83452.0657623378
83450.3057246623
83454.7363724359
83452.3353939212
83451.0350108743
83445.9696682157
83431.9031470216
83410.7146904411
83386.4636890071
83371.6559904456
83369.1122825832
83377.6671474794
83366.3402612358
83361.4670148628
83360.9262503854
83363.4072041025
83363.596980255
83324.0494310317
83326.5361683488
83324.3282521386
83322.9831959323
83333.6600135271
83328.159618551
83369.3328331065
83363.5591331705
83367.7804772892
83372.3594902442
83373.6180538463
83369.6505693541
83374.5306202635
83379.9106219364
83340.7252894224
83336.6307530402
83337.9995090625
83342.691080017
83342.3920817873
83338.9973933706
83334.29982205
83336.6700511647
83354.7911162242
83350.2973492577
83347.2950104326
83349.0396157895
83348.2471454708
83346.9363353893
83350.5530726007
83350.6932962367
83352.313709721
83351.1023883753
83357.0381650999
83358.1178912013
83364.9158838466
83361.6582329356
83364.5494618818
83367.3421869857
83381.679552738
83381.0181899901
83397.2945371917
83397.0787437238
83417.102700246
83416.8355766128
83444.4441848696
83445.9947601308
83484.5100559341
83482.7160904594
83536.8353011968
83540.054694515
83596.9757741965
83592.8592039791
83646.4055531617
83651.4895310557
83693.8729345755
83688.3678713618
83722.9484118239
83728.6751641949
83748.2379816816
83742.3465267649
83755.8357677845
83761.6328909404
83764.7454666826
83759.0576396188
83753.5871097105
83759.2038692848
83746.9625032517
83741.2665146718
83715.8370809538
83721.692080027
83688.8334318815
83683.2636970489
83636.5453805856
83641.3644485789
83586.918248252
83583.0149106996
83524.36729844
83526.8644468208
83474.6363618845
83473.0267276384
83431.6853709428
83432.3560720934
83405.9100067733
83405.3603811369
83387.6785599892
83387.7469935894
83375.6385182488
83375.5479383991
83369.3444276327
83371.1320863865
83398.7961542769
83395.7102055518
83394.8895144295
83396.4465909013
83349.1863963298
83348.0090696887
83299.3077801499
83297.3383739433
83248.9179150832
83252.5477987323
83277.4460020132
83276.01668804
83249.21801867
83250.2833155394
83265.7366217561
83266.4019792705
83252.6235511123
83250.8701718484
83262.8869635352
83264.4988403093
83249.7732412847
83248.0265096464
83260.5316066193
83266.0941496566
83269.6833269842
83263.1211848161
83267.7560748952
83274.8767443299
83278.7005055445
83273.1174591949
83275.1140180632
83276.8741424247
83295.1107512533
83290.3350344718
83292.2596174823
83299.4582188468
83299.188243496
83294.1743840079
83294.6145742205
83295.4763394427
83315.5810876695
83313.3443207477
83311.4738185203
83309.2932017022
83305.2154781819
83312.1371265987
83297.0255278292
83287.7694320031
83287.4241896665
83291.0990648396
83295.3523361171
83299.0073802269
83296.0930304995
83294.0217136543
83289.7872675954
83293.7687436619
83327.6351188119
83326.0898097914
83326.7214089206
83328.3387832375
83359.8387463086
83361.5089002557
83368.5051404052
83322.5796400108
83322.1637214025
83325.9824466666
83327.8900858821
83290.7421802404
83287.5499580881
83284.0758145731
83287.5495466168
83278.4707836115
83276.1855692101
83281.9111890963
83276.9026147476
83314.676258071
83306.451788749
83307.552828984
83311.4561826861
83334.0045202462
83334.6065848567
83335.1682425083
83337.9400754255
83306.0787908325
83303.4221263419
83298.3843647957
83302.3924454672
83298.5007739923
83293.0916978911
83290.5705342254
83295.2585559508
83286.958896077
83282.5619878237
83293.1321188612
83300.0076459807
83291.3456385215
83289.5643050825
83287.2101903357
83287.5411417776
83281.1096514808
83281.3591487453
83271.8575244818
83271.563514389
83256.7677337994
83258.2496653752
83256.0004112644
83255.6574737473
83243.1105025423
83244.3225285962
83228.6957165556
83228.4403251884
83203.2859116365
83204.5136638923
83180.7351392879
83179.1842291416
83170.3188597584
83170.6157771567
83155.3205105185
83153.0345955369
83136.9641926828
83139.5336641025
83131.3831170207
83127.3956478607
83127.9149615608
83131.8324530996
83133.9006990038
83128.937779732
83131.0755849348
83136.3070145045
83138.1235396164
83132.1650545061
83129.8623781112
83136.2574008764
83134.3833221144
83127.7563740161
83121.5367047287
83128.6701469633
83124.3714385676
83117.0816861594
83109.4417488701
83116.9586267332
83113.9522627768
83106.1218922191
83099.5839833074
83107.3399150749
83104.4483187778
83096.5527165374
83091.5933587061
83099.2627960883
83098.646153772
83090.5291122078
83087.9858945191
83096.1183131737
83095.1687572485
83087.4092526431
83089.6621462952
83097.4839640592
83098.7423606598
83090.6825310786
83095.0644656736
83103.0752211899
83104.5571423652
83096.9310137922
83103.0863095407
83110.9613710793
83114.0286444021
83106.5128707792
83112.9120706251
83120.2630246185
83122.9160532155
83115.8198367388
83120.8543945013
83127.4796744678
83128.5235818898
83122.225655961
83123.3914461787
83129.2854745729
83126.7739200139
83121.5110030682
83119.3243235717
83124.2879592128
83122.0923004253
83118.1072325206
83117.4621213206
83121.5355527326
83131.71059134
83129.0973314907
83147.2624373633
83149.5209566986
83166.9660344111
83166.8298472948
83177.5838471377
83179.0768312335
83208.0221123976
83207.3331868883
83226.4270927499
83228.9259742199
83246.8720383116
83244.6861223462
83273.7752756132
83275.2337203556
83309.1949302499
83308.3982067686
83340.4361131053
83340.1094701932
83342.4499689426
83342.1575803866
83304.4875975239
83305.0674902378
83266.2780095002
83264.6932466917
83254.6792862732
83255.3276621442
83243.1601521037
83241.604632991
83200.2373944347
83198.700088403
83192.9083016176
83192.9759790409
83182.2803860703
83183.2606348562
83182.1509870268
83180.5390163281
83189.6082420573
83190.7358690338
83203.8872702603
83203.2892874813
83213.7610871574
83215.1498327543
83226.9436332322
83225.5782246182
83231.4651966961
83233.9880306902
83240.7833145536
83238.391684221
83239.8611689778
83243.227699427
83247.6912302846
83244.537016999
83242.9843091627
83246.2890710567
83247.1703573116
83243.6117224781
83241.7763380456
83243.9698000521
83248.6436800304
83245.5360445432
83243.7851661674
83247.3968027565
83243.8600236569
83241.0431542877
83240.0132104709
83242.5611375318
83248.0829131194
83244.5135771719
83246.1608354286
83249.4494457131
83244.3952684954
83242.1784576472
83244.2399771949
83247.3308107296
83249.3059180384
83246.2741391506
83249.1923368909
83252.5929925597
83249.0810137652
83245.9961702403
83247.9786069544
83251.0451211527
83249.9320574028
83246.4302568583
83246.4565971935
83248.9958439359
83242.8750370697
83240.048041633
83235.1136479135
83236.7302802377
83225.1881652061
83223.6048613178
83213.5343164405
83214.2329513021
83201.8067370445
83200.5173893392
83191.6331643753
83192.7376806231
83192.0051853128
83191.4697482968
83200.0614504997
83199.9190663435
83204.5367527364
83205.9206738225
83247.2952890896
83248.7025220342
83250.5399090057
83248.8506173386
83255.633153264
83256.2887407404
83258.9321391647
83256.0320264824
83266.5598742155
83267.6432519458
83285.3691044474
83282.1803421096
83306.1345756958
83306.0600278332
83326.6424556544
83324.2649763215
83346.521556901
83346.2326183266
83361.7728300722
83359.3857633472
83373.7457566163
83374.495257412
83383.2911096678
83380.5947992848
83386.169162078
83388.035580002
83393.4320737501
83390.803311366
83400.2885935895
83403.0204654449
83404.0371282039
83400.9645020021
83397.093677922
83400.6405834539
83401.6525592103
83398.2172860432
83409.0446115068
83412.9105024525
83412.5727941702
83408.299019588
83396.9703775949
83400.8114477095
83400.3275272888
83396.5580516456
83404.3730416856
83408.7199793862
83406.8105467465
83403.471089264
83393.7413983033
83396.2851371349
83393.8021343697
83390.6848241225
83388.1713112575
83390.8911892679
83386.1246552562
83384.4750948764
83372.8137858545
83375.6214397435
83364.6618069714
83363.9611969246
83349.5011767625
83351.8123998094
83335.8177133043
83336.1249906411
83314.4712129298
83316.5957192533
83295.2927731828
83295.3946384756
83269.7676205353
83273.110081876
83256.4238560984
83254.8774209528
83246.052846315
83249.0576647496
83247.447809615
83246.7796778574
83241.9581364787
83243.6594885692
83309.964036322
83307.2982999425
83303.4998877744
83304.8906397191
83304.0006716769
83303.6205789881
83348.9234713414
83349.1329577747
83359.2830195602
83358.5715210009
83377.8127156313
83379.0123839411
83416.232494971
83415.5306237381
83333.2109789661
83336.6827576144
83385.816860013
83382.6763147881
83442.9888467444
83445.0615870673
83494.0916945124
83492.1405549237
83529.1541469614
83531.4799996833
83554.3985914459
83551.8256320794
83568.7863225178
83571.951578401
83577.1856868863
83574.5285835329
83577.8436274034
83580.5918864412
83580.3375021608
83577.4544952854
83569.3315119832
83571.8070094759
83561.4615723104
83558.684756397
83535.0394473328
83537.3868545489
83504.4642730303
83502.440428253
83454.2689440193
83456.3618403239
83398.7443108656
83395.7567789353
83344.6807552672
83348.2482521326
83320.8742316461
83318.2412234119
83314.2904241011
83315.4080023755
83308.9168389063
83308.672399423
83254.4049641042
83255.5446527554
83267.4553818448
83267.1563236114
83276.2955244964
83277.1802860902
83283.398314248
83283.229330882
83305.1895477423
83304.7531900458
83312.7998906777
83313.7632820673
83310.6279667194
83310.789075553
83309.0899557176
83309.2150182373
83349.5951001179
83348.5801998938
83357.4817847165
83357.5241980767
83370.0284485858
83370.4206373252
83391.2961294268
83390.5073733988
83427.5500240017
83428.0512271056
83482.3158071251
83483.4360068375
83544.6372541671
83542.0533511755
83596.814238058
83600.1600485736
83641.2910528104
83637.5006523545
83669.1325229206
83673.046845783
83690.0010058488
83685.9822758435
83698.0196914498
83701.8769121352
83703.9543327882
83700.1342730897
83695.2315982785
83699.0442014975
83688.9590445228
83685.1062565848
83661.9250101101
83665.94819335
83635.4228679377
83631.6961025761
83586.2165303441
83589.6375987967
83533.343362663
83530.976183238
83469.144571614
83469.7774032099
83476.4661812861
83484.3687378038
83494.9271975447
83511.1413271809
83522.2198739718
83515.7856673255
83502.7197609511
83492.513683363
83477.9761316836
83464.9622609624
83455.8772751506
83447.7826372764
83445.463808296
83443.5749613306
83446.7094091508
83448.4430611078
83455.5778535201
83463.9682814796
83472.4950260393
83478.9058116832
83477.6863462125
83470.5285468407
83447.6068155848
83407.3881266911
83377.5799085629
83356.9629096243
83270.9348905186
83269.0994512083
83267.4089211952
83324.3248296191
83313.6335512893
83321.9136063106
83275.4821967204
83270.8211137325
83287.6269003927
83292.4480156987
83273.1105492035
83270.8796679865
83271.5800009536
83273.0737398158
83261.0175443276
83265.8956693955
83256.7174128173
83236.4925297697
83242.9304027576
83256.9339759014
83266.1805016478
83274.7366544372
83269.579851324
83266.6375003744
83281.7372845039
83280.8779948686
83279.0747620858
83277.0299504965
83269.4758399482
83272.7704774888
83264.5458059638
83259.8186696358
83253.2049757497
83258.0045674696
83248.8557209534
83244.8804173531
83248.4387180431
83256.0907012313
83247.2547764375
83244.050570949
83241.2100847393
83243.4690833429
83233.149830952
83232.0719840457
83221.8209678549
83222.0110428226
83201.0071377208
83201.8931509507
83187.8654022658
83188.7733557711
83170.1534368297
83171.1345609285
83154.6430980971
83155.0224666345
83130.7393033576
83130.567792571
83104.2619659056
83105.1227259337
83094.3954003152
83093.9576331894
83091.8580570208
83091.019331964
83094.7625674623
83096.3836118508
83131.7914816755
83130.4575275772
83231.1043065572
83232.2930286081
83367.4595739357
83370.4086167223
83425.0122799841
83421.5196814209
83364.0519732404
83364.0136317895
83227.9068155075
83227.1885363295
83122.1983180016
83123.4345595656
83048.3328506583
83047.8266781819
82993.9377822685
82994.1094944883
82953.6884787491
82953.6280040499
82925.3707729598
82925.3907273084
82902.3202527388
82902.4072957582
82887.8554223928
82887.6527069855
82875.4118538037
82875.590773992
82868.9773752159
82868.7998211647
82864.5399731058
82864.7776529801
82864.4168902797
82864.1847552327
82868.1257571504
82868.3371134018
82874.0590561073
82873.8429658336
82885.7908288696
82885.9691400997
82899.9960871773
82899.8554275665
82922.1914685737
82922.2795152784
82950.2386183155
82950.2726682423
82990.2309535536
82989.8781871502
83044.0487630127
83044.8061569814
83120.7360407521
83119.337215766
83226.0943379585
83227.0872669169
83363.6209591195
83363.9406309392
83417.1305425768
83420.4874102137
83360.7630920787
83358.255952353
83223.4376816659
83221.8211282027
83124.775139889
83126.6395888582
83095.4636417749
83093.7789745966
83091.5008822116
83092.5991609893
83096.2553340806
83096.6842136487
83107.695220558
83107.0346371842
83139.1616646793
83139.7736208176
83156.2001829436
83157.7263617257
83179.7643772734
83180.7582716383
83184.6184878381
83184.8360820289
83201.0908187653
83200.6030055918
83216.2925548723
83217.3097180612
83198.8148115452
83196.3388852933
83175.8003887952
83178.2633729332
83165.2134338312
83162.8863112709
83145.0395822236
83145.0678820198
83113.299478985
83113.2587198982