/*--------------------------------*- C++ -*----------------------------------*\
| =========                 |                                                 |
| \\      /  F ield         | OpenFOAM: The Open Source CFD Toolbox           |
|  \\    /   O peration     | Version:  2312                                  |
|   \\  /    A nd           | Website:  www.openfoam.com                      |
|    \\/     M anipulation  |                                                 |
\*---------------------------------------------------------------------------*/
FoamFile
{
    version     2.0;
    format      ascii;
    arch        "LSB;label=32;scalar=64";
    class       volScalarField;
    location    "1000";
    object      k;
}
// * * * * * * * * * * * * * * * * * * * * * * * * * * * * * * * * * * * * * //

dimensions      [0 2 -2 0 0 0 0];

internalField   nonuniform List<scalar> 
207032
(
0.0157619185412698
0.0167961307460385
0.0219875234183202
0.0209310888048153
0.0164763866650877
0.0163987608706614
0.0205332556704591
0.019879809544794
0.0195109890864035
0.0156667924478044
0.0160019724065032
0.0154895126110136
0.0153165186554295
0.0153812090938845
0.0155490193206869
0.0161354194511023
0.0207216332684077
0.020528099488954
0.015737165328383
0.0158302376551198
0.0218653362807447
0.0218089086918386
0.0162939423173232
0.0156320087015068
0.0154430005743449
0.0155156799021725
0.0157280354620823
0.0165271745483784
0.0229435120564641
0.0230974264019956
0.0159824229284229
0.0168293272788868
0.0242155308697332
0.0240203345361387
0.0173595269583207
0.0173438999203838
0.0247593731435445
0.023347800532709
0.0169338194599798
0.0170335149492721
0.0230869321948161
0.0223087456851669
0.0170935331374743
0.0169634346171849
0.020707326212953
0.0194003588642528
0.0165805702536951
0.0160014033944679
0.018443327062397
0.0170955703960479
0.015459382853824
0.0151585884606437
0.0163352315355478
0.0157529014829517
0.0153139956447662
0.0150257862338648
0.015062256391265
0.0150487557227651
0.0150141982287405
0.0150104691939718
0.0150068868507019
0.015020902005108
0.0150425433392821
0.0150806499961423
0.0150462737349259
0.0151573867175186
0.0163774706716893
0.0164072607628602
0.0151733398954454
0.0150558112716653
0.0150424536748274
0.0156348907486174
0.0157167445320778
0.0153049614856014
0.0153151788564319
0.015020561091899
0.0150220947733879
0.015351804186451
0.0171368305583048
0.0170256869336526
0.0152768175490393
0.0150893009211355
0.0151442415269181
0.0151583801592353
0.0150977963387288
0.0153752283871222
0.0156016297184366
0.0156201974764508
0.0153897513610997
0.0152670648729554
0.0154094445103532
0.015177012833981
0.015111207796944
0.0150777631239049
0.0151146632743777
0.0151933465631576
0.0151285108571922
0.0151791953473918
0.0152431619314239
0.0152884912913188
0.0152324071106642
0.0152892730987608
0.0153559683843055
0.0154808515066582
0.0153628857617244
0.0156933804843339
0.0159886668868496
0.0163551128258863
0.0161065974737244
0.0174188635614385
0.0256701025441247
0.0253540007987182
0.0178643639346699
0.0180156466647955
0.0259588792666669
0.0252796512506809
0.0175776922174095
0.0178955479229115
0.0261741562683964
0.0269917269790882
0.0181227724494306
0.0182588572377604
0.0265714412754722
0.0268057832485657
0.0184034877316878
0.0181345542531882
0.0273413180673476
0.0300876640283846
0.0195044802318913
0.0192229613792614
0.029058295504809
0.0285366250986677
0.0185523172140628
0.0183663746818849
0.0303878727739981
0.0293157518503071
0.0176895691055049
0.0172662323436365
0.0263664375383689
0.0242388172593239
0.0171396094555234
0.0167650691076215
0.023276763663996
0.0217035330822704
0.0166907202465212
0.0165092570095037
0.0203857928601734
0.0191283025825705
0.0161765329777978
0.0164380133713025
0.0202472614070486
0.0181784166644573
0.0158000976328265
0.0154920538576522
0.0171666852983746
0.0164044988630021
0.0152255717072327
0.0150576703552198
0.0150234722160341
0.0153197462498618
0.015816270653086
0.0158129969848599
0.0152850125897754
0.0150104155531821
0.0150322233749094
0.0150185881208087
0.015007193970666
0.0150120219128232
0.0150339959038344
0.0150384850662581
0.0151231395667113
0.0150924535463131
0.0151789020370848
0.0163975821200631
0.0164203127571165
0.0151142015152333
0.01501517709455
0.0150033138203973
0.015286945938093
0.0158169611550791
0.0159095673840499
0.0153427518329543
0.0150009897781899
0.015011568129
0.01500630075624
0.015003727648284
0.0150018076020147
0.01500374244535
0.0150080308592649
0.0150030753352214
0.0150046868333189
0.0150159544960689
0.0150104675511584
0.01500404850873
0.0150026498793161
0.0150036568830587
0.0150007390158152
0.0150004771706819
0.0150010973404309
0.0150024473569764
0.0150057274620385
0.0150025177498277
0.0150068425217358
0.0150179846274989
0.0150590029518684
0.015029801457017
0.0150142244256251
0.0150235851250417
0.0150649807787732
0.0150468118853607
0.0150709677220834
0.015088562516971
0.0151206594975607
0.0151056668240481
0.0151421902403672
0.0151758240179642
0.0152163910438277
0.01518164376381
0.0152268791725697
0.0152625519523359
0.0152782533015125
0.015241947428276
0.0152986696732184
0.0153511072263837
0.0153704493165989
0.0153171380708412
0.0154557644914105
0.0155964071713639
0.0156362770241067
0.0155170815691731
0.0161647010665939
0.0163877309845026
0.0163734440251875
0.0161635342646535
0.0179795772652876
0.0181430486128516
0.0182729362594063
0.0183030411342142
0.0181268077583942
0.0181071366125026
0.0192373006648385
0.0306319080090059
0.0315724026921251
0.0194716726972954
0.0196238648976464
0.0350526762966501
0.0332714677147085
0.0194319966253672
0.0186557345814323
0.0320881633502231
0.0304296914645548
0.0185422144018648
0.0166986547014543
0.0160871184105924
0.0159319433187547
0.0158926577706665
0.015839715213722
0.0159639688947847
0.0159730571578749
0.0162830238667414
0.0256615217046918
0.0242207912520407
0.0161990945572265
0.0161532613638787
0.0229097011310291
0.0216679320212297
0.0161313942465282
0.016085752475864
0.0203386864771625
0.0203442786872868
0.0160671771441771
0.0161552662492985
0.0196495746337279
0.0181937146451995
0.0156976077816576
0.0153847313160644
0.0171657350736151
0.0171908842321801
0.0152429351625539
0.0153714594734446
0.0174192905778831
0.0165754962370783
0.0151585874771362
0.0151338717972823
0.0166614184756652
0.0159604065546417
0.0153731550151096
0.0150032602691624
0.0150099553594216
0.0150066027485778
0.0150029636751372
0.0150016722796628
0.0150036792954395
0.015003768661761
0.0150016610466446
0.0150016163528513
0.0150041435278275
0.0150047250761243
0.0150015638018489
0.0150008253647382
0.0150043791606367
0.0150023153498848
0.0150016723674173
0.0149996684396607
0.0149997709787735
0.0149995455245806
0.0149989941312602
0.0150016604563138
0.015004405901433
0.0150185723126986
0.0150103650596167
0.0150073560022917
0.0150097415394048
0.0150311056017752
0.0150222871179149
0.0150568747472487
0.0150749680536308
0.0150947274415609
0.0150808668834392
0.0151134392616338
0.0151235296020532
0.0151130808303878
0.0151020439580378
0.0151351630635645
0.0151452474740966
0.0151560455067385
0.0151407501002098
0.0151752691588619
0.0151892928609228
0.0152078018347061
0.0151929076434443
0.0152438876856286
0.015278786085314
0.0153001284732365
0.0152657194307303
0.0152858396814878
0.0153200539963223
0.0153398619458403
0.0153060027663995
0.0153688314633735
0.0154297252830012
0.0154496144677497
0.0153907430672294
0.0154803410498876
0.0156068556432239
0.0156204796927902
0.0155046684243235
0.0155565177820667
0.0156609916896695
0.016427836104491
0.0162305666702152
0.0162194902703214
0.0164120620210995
0.0165627301691536
0.0163924369680213
0.0182362024013323
0.0181927017865015
0.0186364594130632
0.0187413994882102
0.0208599770818362
0.0200689969560424
0.0356815052350801
0.0379118547368275
0.0429888824391236
0.0392405020927581
0.0201305050116505
0.0214762490938743
0.0189339455120632
0.0193197778600477
0.0193262424316757
0.0189618653387059
0.0214009001673546
0.0202311029968825
0.0419561990904444
0.0458008166695963
0.044057371830089
0.0208656849536712
0.0201147777295463
0.0417055375461183
0.0432985703415571
0.0201309465050755
0.0202116176043593
0.0436447753595221
0.0390567214181891
0.0202226698813345
0.020230233120794
0.0398092985199723
0.0364002767994214
0.0202200043571754
0.0193897777943056
0.0360055701509399
0.0339090156153
0.0190336537899863
0.0197339266679514
0.0340824920310997
0.0339244490475504
0.0195492012448821
0.0179944351068068
0.0298299957940343
0.0272773389945157
0.0172358667993369
0.01686206672811
0.0250486546207341
0.0244711706988397
0.0166557312154191
0.0166295368388558
0.0228750739295432
0.0214100076919806
0.0165941746495083
0.0165767767234925
0.0214819389033996
0.022392137187422
0.0164452034922803
0.0163366066116539
0.0205617426778685
0.0220309061086338
0.0163449791976331
0.0161344831800208
0.0215266584598307
0.0228201174562764
0.016154265802675
0.0161793636765173
0.0243328463605381
0.0260459772160418
0.0162370243583671
0.0163102694965045
0.0280187693796775
0.0270682647266466
0.0166809154097471
0.017863331233557
0.0286573218786829
0.0252425000311769
0.0162155814715453
0.0161012303205849
0.0226497163811015
0.0202099282159638
0.0160350548524931
0.0156185232921467
0.0185569652805984
0.0186634341848787
0.015450733691824
0.0153333169357839
0.0175281684820514
0.0173192932886798
0.0151288233215285
0.0150602065653338
0.0165549524511637
0.0159013140225556
0.0153407317205717
0.015001631002066
0.0150071263969003
0.0150113486440571
0.0150025724702948
0.0153398149749747
0.0158978745191185
0.0165496883248923
0.0150680915505071
0.0151451647570754
0.0166561641167505
0.015957053544787
0.0153704870454918
0.0150047507700692
0.0150090280537966
0.0150087979251195
0.0150033742346789
0.0150028021242975
0.0150062410389584
0.0150048465803478
0.0150018108261642
0.0150015728921914
0.015005135232798
0.01500663431023
0.0150016992039178
0.0150014146174023
0.0150115558952507
0.0150434250119772
0.0150089166158201
0.015005008694057
0.0150021640345843
0.0150179717774054
0.0150368795181765
0.0150769411173864
0.0150453977617415
0.0151035726582696
0.0151684039571306
0.0150695010495784
0.015039512636903
0.0150895602883637
0.0151295402757931
0.0151549941634197
0.0151197598294077
0.0151598637908914
0.015194588435722
0.0151317496589446
0.0151184965957707
0.0151538136617286
0.0151664874396829
0.0151557396333929
0.0151467133791152
0.0151776973792685
0.0151867761392174
0.0151779105920945
0.0151690496192194
0.0151849858977671
0.0151947205205519
0.0152055582441388
0.0151912256968375
0.0152099608379098
0.0152239169310161
0.015226634662114
0.0152122442942238
0.0152312442667826
0.0152456154355074
0.0152651586841737
0.0152507131397869
0.0152700572388992
0.0152849962340292
0.0153585100483478
0.0153253865897705
0.0153423756783694
0.0153745363278163
0.0154656488207496
0.0154103911685394
0.0154292848124831
0.0154816423821546
0.0156336387295375
0.0155274334047828
0.0156117197582802
0.0156889306252063
0.0164847616155516
0.0163108947251937
0.0165169064537195
0.0166317344677992
0.0172262094780316
0.0170548093396635
0.0171276939042781
0.0172841764002685
0.0189543095477752
0.0186444684353329
0.0186035569214431
0.0187516301047521
0.0200811694687571
0.0439906425649525
0.0468732779717192
0.0207005313281841
0.0207160479107612
0.0510642202732993
0.0476717245271846
0.0201136706336894
0.0200415277787762
0.0490368493251675
0.0454007175507307
0.0200502648631642
0.0202221983614937
0.0422016940287044
0.0437527967247335
0.0202733643590444
0.0198572820270096
0.039479064645911
0.0364864457479378
0.0197754554342127
0.0197413944215519
0.0356883898780855
0.0337513842808281
0.0195223794482934
0.0192448993130812
0.0310777955424941
0.0283917489232546
0.0175930349968271
0.0167843627780878
0.0263121043085821
0.0265490405166193
0.0167166673626527
0.0166515473084839
0.024711969884347
0.0230705719591992
0.0166094028874501
0.0164740140603799
0.0242598886105497
0.0235884473541535
0.016362610488639
0.0163976706634027
0.025427894758965
0.0276014645427609
0.0164573283134298
0.0165365779898552
0.0301315623811319
0.0330488492722135
0.0166851507094428
0.016858522506768
0.0305189074134325
0.029036132630935
0.0175854392215912
0.0182623259726283
0.0300071459669249
0.031862244408932
0.0183487510043723
0.0182202299590813
0.0305847216396918
0.0296785015612224
0.0172602551667085
0.0167334538542322
0.0260609073054366
0.0237846194660631
0.0159073681533507
0.0157695636207083
0.0217791660956835
0.0200771126883386
0.0155971173171598
0.0153856523300525
0.0193184154688241
0.0182306970168645
0.0152166176432638
0.0152755672932361
0.0182184486289636
0.0173128925870372
0.0151358346318535
0.0153548580233534
0.0175183801937068
0.0174084621847077
0.0154458855718234
0.0152671811385037
0.0171650517423478
0.0171483492189379
0.0153698292652004
0.0151671233098245
0.0163892704945821
0.0158087680995021
0.0152825181015872
0.0150062345249303
0.0150261515020855
0.015013566507819
0.0150039514229873
0.0150085854819424
0.0150306847625277
0.015051332005868
0.0158154718283997
0.0153167900403987
0.0150170753023578
0.0150270910875876
0.0153126238799263
0.0157543230482757
0.0150625455758057
0.0152643810923095
0.0163401258011649
0.0164223370111444
0.0152513135157698
0.0151625955642768
0.0163711088360929
0.0170316961531413
0.0172044792036121
0.0155180282341077
0.015356096324757
0.01565346004924
0.0157846128757884
0.018472291726176
0.0180769736846232
0.0186945502672907
0.0191391917752775
0.0158669389301202
0.0156499699982001
0.0153997785018573
0.0156101747425953
0.0155899544837785
0.0153856576115494
0.0151147967427094
0.0151847320561424
0.0152091073892982
0.0151315780379825
0.0152781313582838
0.0154129977399171
0.0154868952020817
0.0153282187904845
0.0154033397277041
0.0155646917164062
0.0152709457778361
0.0152112857519904
0.015283806827989
0.0153385329459658
0.0152384063124042
0.0152034778354099
0.0152512452946272
0.0152816593621272
0.0151981743123034
0.0151854579761855
0.0152340852727325
0.0152438897183848
0.0152210429949653
0.015213041824139
0.0151823998899187
0.0151926456510716
0.0152138134287652
0.0152056502117706
0.0152036872857562
0.0152131071349269
0.0152322553112494
0.0152228809420717
0.0152290837067918
0.01524295530993
0.0152625852227252
0.0152486861111198
0.015268157180649
0.0152825455925217
0.0153024304320571
0.0152860932155502
0.0152877634732506
0.0153046102176584
0.0153251667838047
0.0153060296675399
0.0153593056405207
0.0153909607128581
0.0153973488226226
0.0153693655424354
0.015383048590384
0.0154089040317733
0.0154906282405156
0.015447830641877
0.0154569025010999
0.0155006795287754
0.0156360317530652
0.0155488194826972
0.0155631367393146
0.0156534018784394
0.0157043194116286
0.0156340552952736
0.0156523640693576
0.0157092460898352
0.0157122394317642
0.015726549156962
0.0156214083554718
0.0156928471186748
0.0156911387192878
0.0156176231148665
0.0155404571773166
0.0156377183545484
0.0156291986742486
0.0155342896067302
0.0154405732846414
0.0154876738326328
0.0154828083078582
0.0154365009191896
0.01549031134184
0.0155237703730479
0.015532070444837
0.0155343778845873
0.0155340508604483
0.0155079802492211
0.0155064008988525
0.015502278414636
0.0155001904346222
0.0155147035962433
0.0155137542158872
0.0155373058543151
0.0154441834658831
0.0154339997660301
0.0154309757180165
0.0154347603174151
0.0154452491382094
0.0154395556257913
0.0163868766687159
0.0238993904168846
0.0221395655551182
0.0156830767757091
0.0154976033756562
0.0206344788003979
0.0207470884842261
0.0156430661681846
0.0155442392425731
0.0193269779502009
0.0200144217761659
0.0159657700857467
0.0155527649570215
0.0186347762727831
0.0185944767357858
0.0157184832839794
0.0155002271597182
0.0181357300647079
0.0181578653354407
0.015652958502263
0.0157792055970504
0.0182242719082052
0.0186383942978024
0.0159816975770137
0.0166027874460866
0.019643874858648
0.0203498142230382
0.016670525903769
0.0164667624108008
0.0207286821227412
0.0211441164585557
0.016617790075907
0.0162576839949139
0.0158609645166131
0.0205255051793315
0.0209129509082149
0.0200664749702318
0.0159746345350921
0.0156912969708746
0.0195988115851336
0.0220661054452412
0.0217252543083843
0.0162692067007659
0.0166415837709524
0.015728317388343
0.0155229389277244
0.0157859957135342
0.0160249620290566
0.0154428062620885
0.0153848527705218
0.0154138701892606
0.0154701716376086
0.0153065041243295
0.015275462695979
0.0152672962888794
0.0152986611361524
0.0153063560624295
0.0152781612484836
0.0152999145665525
0.0153280721997793
0.0152648728832275
0.0152517307281046
0.0152523250959358
0.015263127895364
0.0152398129708294
0.0152306429882996
0.015229929092843
0.01523936011037
0.0152328751040254
0.015224799083675
0.0152450615122463
0.0152531561250616
0.0152521862103652
0.0152427880948464
0.015262743148904
0.015272872836337
0.0152941023920112
0.0152813022100992
0.0153007512656988
0.0153166481712664
0.0153233940226752
0.0153047134010271
0.0153146430922389
0.0153306364581688
0.0153422960357671
0.0153280017773265
0.015329034695202
0.0153436513823563
0.0153434857883284
0.0153287058198601
0.0153767645347836
0.0154019339984726
0.015411163448509
0.015387932159572
0.0153972513794062
0.0154216010052188
0.0154997485290515
0.0154601915990258
0.0154736263290212
0.0155148140543963
0.0156449004167071
0.0155645018283028
0.0155849301330627
0.0156708463429358
0.015721611091006
0.0156523086194313
0.0157107845875938
0.0157525233740405
0.0161206354940557
0.0161111638493137
0.0161414353957113
0.0161445009480546
0.0166769842445943
0.0165742655389349
0.0166320235077583
0.0167225277329263
0.0173286677231682
0.0171858004609213
0.0172581063265407
0.0173904448046985
0.0187320154184347
0.01862012453383
0.0186681727151252
0.0187743980360519
0.0201898773244907
0.052026908568071
0.0561650026160907
0.0207783386763279
0.0208692619716084
0.0624315561712055
0.057298934370033
0.0202912143079348
0.0201484683513107
0.0595186542593669
0.0537616320934138
0.0200808361569676
0.0203889629406201
0.0517299606268542
0.0538545197740397
0.0203908592219166
0.0203285579297604
0.0485307831854108
0.0429971940660564
0.0207336936893243
0.0212011458788984
0.0399312899473527
0.037452618537599
0.0199602514388313
0.017868463890668
0.0171137816767379
0.0166422189585129
0.0164917188016266
0.018821844432663
0.0311231000505346
0.0286196534706015
0.0172798603993364
0.0166905865783287
0.031501893462383
0.0287380477874435
0.0165584766861238
0.0165104199207303
0.0263230890891242
0.0163300883602581
0.0159514523765785
0.0159799614972248
0.0155575402485687
0.0156345969112123
0.0161640189506781
0.0165874119470748
0.0179861927496171
0.0315192677786803
0.0340319384433352
0.0186349915883791
0.0191126361431201
0.0340923768212727
0.027872389978353
0.0173856095186807
0.0168157280719926
0.0268323106374256
0.0273968361239545
0.0174642072178546
0.0165747407180826
0.0240839220983288
0.0223575223528136
0.0158596522849288
0.016379548297481
0.0248059454867002
0.0222817444035496
0.0161508044457092
0.0165961627091081
0.0216641780806812
0.0228863726357219
0.0166509593735045
0.01660095934144
0.0214025323903896
0.0204759628064247
0.0160077862541298
0.0159842085579548
0.0202540839202366
0.0195976795552717
0.016068280311392
0.0163969850736884
0.0203908179329389
0.0193598620088419
0.01618133156532
0.0165902860410183
0.0206894206102086
0.0210649146326159
0.0171367116987933
0.0171629583027358
0.0217431279489516
0.0223148338292413
0.0170960598492352
0.0173736572185484
0.0237424246122935
0.0233047143405731
0.0228577504808849
0.0165350767477415
0.0169346209186997
0.01740346301023
0.0170961512670496
0.024343814328831
0.0246529106614011
0.0250837038696549
0.0177030969205093
0.0179446214181297
0.0268329807331297
0.026392561654275
0.0264459085616737
0.0178755654754813
0.0180500289043016
0.0174781773109943
0.0171391679212646
0.0169782704172433
0.017377359932365
0.0160695708068379
0.0158480334206107
0.0158470089640577
0.0160664261447279
0.015499728738041
0.0154326121458319
0.0154684155835295
0.0155345331734142
0.0155014249030566
0.0154476357314125
0.0152980299130894
0.0153283518164457
0.015351303945609
0.0153212565650401
0.0153447959995826
0.0153749936640069
0.0153501246497149
0.0153224508838209
0.0152733617986776
0.0152863059077252
0.0152842592719475
0.0152736778733371
0.0152514137931605
0.0152604937565333
0.0152598453624472
0.0152505103323032
0.0152711249945064
0.0152813276978285
0.0152744085225999
0.0152654953273226
0.0152846283552211
0.0152965219454429
0.0153201583334868
0.0153048012517194
0.015315556720915
0.0153283828584017
0.0153411247140615
0.0153300221122906
0.0153258147727308
0.0153372559936518
0.0153366151080569
0.0153249338741095
0.0153281756223811
0.0153421210037906
0.015355133588446
0.0153421242805073
0.0153419591218907
0.0153554294731639
0.015356399981239
0.0153426636577858
0.0153423004833806
0.0153562158783301
0.0153690966504325
0.0153551356187852
0.0153980436304009
0.0154206386118072
0.0154341604686797
0.0154099381865837
0.01547067349485
0.0155091728908096
0.0155287703644741
0.0154878847047274
0.0155767041733
0.0156545792533224
0.0156881275692069
0.0156024631456687
0.015669224882753
0.0157398571086168
0.0157732752159551
0.0157316152610066
0.0157522371813031
0.0157942021965726
0.0163159075093091
0.0163077671928329
0.0163152486398383
0.0163157956704657
0.0164133703793053
0.0164189170474254
0.0164163838527431
0.0164009598478619
0.0167712050781988
0.0166932495357523
0.0167578475444609
0.016823990750242
0.0174729774698101
0.0173424770362266
0.0174352694037895
0.0175654407772865
0.0188376514630898
0.0187354615125248
0.0188168309397797
0.0189129320097094
0.0204082862365608
0.0635261507064728
0.069857958777591
0.0209768697787642
0.0211021027882518
0.0205420058388367
0.0709620360432924
0.078887073629874
0.0897995187317283
0.0212435421571173
0.02069192027636
0.079770247675047
0.0835977207714041
0.0204475041575793
0.020328438701023
0.0742728008335269
0.0663140572346976
0.020229806170185
0.0209810511634799
0.0658370914059129
0.0659358878641374
0.0205542886027644
0.020460041700048
0.059489176600676
0.0547283684396028
0.0231426074898011
0.0227153247246522
0.0482954322349779
0.0433129444524204
0.0231257407738686
0.022035660275434
0.0387141959173711
0.0355038526215159
0.0213209675553799
0.0204247785297416
0.0350332864523897
0.0387861741473236
0.0188702267613278
0.0179142512759214
0.0346599141596551
0.0166129073964468
0.0162141416593784
0.0163419855731713
0.0158347669980375
0.0158060701113431
0.015893280534154
0.015514193612686
0.0158209505246763
0.0162833005740791
0.0175978002475344
0.0280172305506924
0.0287370448579088
0.0179941895218865
0.0180869994725465
0.0289987120540956
0.0329988422998805
0.0192172537802746
0.0182715716162442
0.0305490995547635
0.0291723565598783
0.0181093368559758
0.0177368106521476
0.0278242983014627
0.0268578500009596
0.0171324615799812
0.0169710361703016
0.0315322127398021
0.0288531507342707
0.0168415852904617
0.0167426220926993
0.0265993310426158
0.0245656201835337
0.0166665433908605
0.0166194131479884
0.0242846838516269
0.0231325465792935
0.0161120545759262
0.0163598454379135
0.0235179203903563
0.0220541621140265
0.0162953008988217
0.0162568369268128
0.0205176179184195
0.0224504800594857
0.016368478069668
0.0165717251267771
0.0216678825601988
0.0216939501063998
0.0166396225230257
0.0169861334637758
0.0223446995392856
0.0232925742751025
0.0178221581476339
0.0179056491209027
0.0236717311757111
0.0245699920807865
0.0177363405901867
0.0180979916754327
0.0247410229906458
0.0268702631166163
0.0181945625384318
0.0182193888983642
0.0286173882020399
0.0281494997885282
0.0179577358215253
0.0180486828348152
0.0178282505244988
0.0277788911610154
0.0274479348502922
0.0286728733747082
0.0294658835874973
0.0178513810874443
0.01808266251872
0.0172905793501278
0.0170008992040002
0.0160036443120992
0.0162278875984829
0.016179456536664
0.0159781150632137
0.015504056975004
0.015570279278005
0.0155295503772055
0.0154772345257137
0.0155044562084444
0.0155556343170713
0.0155784543909046
0.0155288703979097
0.0153680684004226
0.0153985422538656
0.015371426505044
0.0153439646148942
0.0152951007121756
0.0153087638816442
0.0153063907227237
0.0152950696971347
0.0152723024224019
0.015282223238694
0.015305044451694
0.0152920609690932
0.0152905135859926
0.0153036820136207
0.0153278134121913
0.0153111143480122
0.0153223022226086
0.0153363711336878
0.0153498859740901
0.0153376527840723
0.0153310523472591
0.0153419597426193
0.0153571665589238
0.0153468406205166
0.0153452277251796
0.0153558236655095
0.0153513739708111
0.0153406421983836
0.0153394112653893
0.0153504557925933
0.015364601551557
0.0153534028720657
0.0153554678698471
0.0153684352580271
0.0153687377548723
0.0153552121459826
0.0153555826068151
0.0153693669393661
0.0153824380098314
0.0153682356316306
0.0153676780684048
0.0153820466455701
0.0154302782284118
0.0154078687776738
0.0154219512408846
0.0154464992709053
0.0155187315550149
0.0154805716853503
0.0155010947289736
0.0155423977874249
0.0156646532799526
0.0155877919251067
0.015618496012902
0.0157050203132754
0.0157582365713076
0.0156857971814892
0.0157024000466588
0.0157765777067904
0.0158144200311441
0.0157716211710204
0.0157910361707114
0.0158348298290217
0.0158546770855881
0.0158097843963779
0.0158289048862358
0.0158749459242983
0.0164795097623186
0.0165019248336134
0.0164968242214894
0.0164645863467847
0.0165383958001078
0.0165761989902246
0.0165689497163756
0.0165225294693491
0.0168799684029553
0.0168232506011301
0.0168846687521043
0.0169375315727418
0.0176637155453205
0.0175346504576503
0.0176381560818505
0.0177676734376937
0.0189992650274934
0.0189106185499443
0.0190148013631025
0.0190967565399597
0.0192041147870818
0.0191270616567103
0.021402039332144
0.103133479801687
0.0902752339184829
0.0208577429647812
0.0205828295931265
0.0945505567973403
0.0999060381991573
0.0212625310760976
0.020955767308091
0.095976716911937
0.083658890120849
0.0207773258727484
0.0206597827841593
0.0738191525409041
0.0706159441666645
0.0228039736052795
0.0229600600468521
0.0622366497582826
0.0632801955937635
0.0243364437566529
0.0245016936194078
0.054199822613428
0.0490533447804574
0.0245634109936932
0.0245931276642153
0.0461353681432086
0.0552479334337871
0.0245159508311408
0.0234292920145314
0.0225900739523754
0.0232080276292667
0.0429504544925729
0.0416213926777472
0.0231460096280663
0.0231051970031538
0.0416033793168565
0.0384870004759213
0.0223457123892549
0.0221424810224679
0.0374672808052066
0.0410531378348367
0.0222172128147985
0.0206197779518078
0.0406310653452976
0.044046102321389
0.019051133533147
0.0171457022118586
0.0397787633334779
0.0362375360131103
0.0168941523266844
0.0169993816393597
0.0335397350814627
0.0336788645485634
0.0180168748410666
0.0180358086864455
0.0372595240359414
0.0345697768529357
0.0184038083401361
0.0185540852242282
0.0378971162649587
0.0416536866569088
0.0186958850300526
0.0187518660514694
0.0375437424170329
0.0419186951458766
0.0214795779687858
0.0208024667964307
0.037373457799995
0.0364860174002512
0.0198533759848223
0.0186905374609373
0.0329172205537455
0.0308738128604069
0.018262405157785
0.017974014467161
0.0296577527963057
0.0304365840068824
0.0182423171600916
0.0182493697736817
0.031068423845104
0.036208937561176
0.0193906775508771
0.0214430364846225
0.0417352548208655
0.0360061666597919
0.0205180713105799
0.0192009844662006
0.032671027620968
0.0298112702869773
0.0187609929551097
0.0182760776574101
0.0316246610002097
0.0377631360220745
0.01732344633855
0.0171509976957351
0.0343568498628978
0.0339518504992328
0.0171282412494808
0.0167566715319653
0.030262051775327
0.0316036175597632
0.0170745758918208
0.0168294228092479
0.0292691180476686
0.0271216842731029
0.0166235190683337
0.0164673083498999
0.0251906104907996
0.026141258988414
0.0165626842477402
0.0167831271212745
0.0247363938207264
0.0247250441446137
0.0168551720343074
0.0172442477778595
0.0260267727177656
0.0294237464105921
0.0179690793098953
0.0181247632948993
0.0294986953432331
0.0308354428804732
0.0182889206482542
0.0179766406925163
0.0297119137630964
0.0313121274182148
0.0180401139026202
0.0181614777990214
0.0179231924215023
0.0312420583252836
0.0300257385933582
0.0315062228827795
0.033249203991492
0.0180499261794821
0.018291293828571
0.0174712161389631
0.017173073897725
0.0161607864542452
0.0163915115413501
0.0162675935136863
0.0160766129910882
0.0155739732388122
0.015639379609908
0.0156685563874773
0.015604780821856
0.0155493914332955
0.0155966680326581
0.0154209290288427
0.0153894143195079
0.015363664475287
0.0153917256362537
0.0153321650373451
0.0153156942735817
0.0153153108833543
0.0153296120938175
0.0153553019115967
0.0153372061255128
0.0153133250710039
0.0153300690902603
0.0153390670261424
0.0153251157395006
0.0153414593186678
0.0153533244101757
0.0153500049815701
0.0153381152706086
0.0153549298783841
0.0153661812450902
0.0153659694260487
0.0153541168860306
0.0153708286972268
0.0153831624075085
0.0153731714290097
0.0153625989275495
0.0153602117965599
0.0153710756994926
0.0153659261808875
0.0153550861694626
0.0153695480632219
0.0153808772048697
0.0153789950673644
0.0153672669276535
0.0153686083182244
0.0153819428171166
0.0153821430136572
0.0153681676329356
0.0153814514579179
0.0153958160682391
0.0153957497083143
0.0153811524740964
0.0153804593654641
0.0153952088931205
0.0154402656489033
0.015418016043205
0.0154340213208068
0.015458857995291
0.0155286549734648
0.015490763408928
0.0155143369358256
0.0155560335036974
0.0156752569770483
0.0155992456596071
0.0156345719993514
0.0157217865283133
0.0157383528423175
0.0156506078943892
0.0157189733263759
0.0157948742932016
0.0158131340668672
0.015735538840693
0.0157521470153542
0.0158313813838322
0.0158496087564035
0.0157688132536853
0.0158476199253002
0.0158948140833241
0.0159152200999002
0.0158668840197942
0.0158858214137489
0.0159352580953682
0.0159558463000407
0.0159053450145104
0.0166447917914759
0.016593292082749
0.0165754461127158
0.0166349823662275
0.0167070796140891
0.0166434781471072
0.0166230058692671
0.0166945375247056
0.0169423165166611
0.0169953058493307
0.017052188667421
0.0169965929104112
0.0177430359229698
0.0178753961294188
0.0179841778634934
0.0178460681452131
0.0179422588966202
0.0180900496790823
0.0193186133302232
0.0192447189550077