/*--------------------------------*- C++ -*----------------------------------*\
| =========                 |                                                 |
| \\      /  F ield         | OpenFOAM: The Open Source CFD Toolbox           |
|  \\    /   O peration     | Version:  2312                                  |
|   \\  /    A nd           | Website:  www.openfoam.com                      |
|    \\/     M anipulation  |                                                 |
\*---------------------------------------------------------------------------*/
FoamFile
{
    version     2.0;
    format      ascii;
    arch        "LSB;label=32;scalar=64";
    class       volScalarField;
    location    "1000";
    object      omega;
}
// * * * * * * * * * * * * * * * * * * * * * * * * * * * * * * * * * * * * * //

dimensions      [0 0 -1 0 0 0 0];

internalField   nonuniform List<scalar> 
207032
(
3.36606167888413
8.27064725357745
28.5220142596128
25.8065461258435
7.03439908514999
6.83463846058658
25.4349601190809
24.1323405093009
26.6476761860087
4.51401173098537
5.11766498072434
2.58172595027922
2.1701988999049
2.29024115497591
2.69041800309754
5.54703771934608
25.4553452619759
28.3486921223716
4.68691193165731
4.87111766925455
30.1646036972134
27.1632058543069
6.09214683724869
2.90686233807664
2.41263659093961
2.59144455750699
3.15773501524505
6.82474735410768
29.1526184727159
31.907033822307
5.38602409629194
8.5610060779996
37.041380694608
34.5728207612198
9.77703809002134
10.0644066478282
35.8781982456921
31.6733457398077
8.76547938081979
9.62941565273359
35.463747384854
34.2073981067828
10.0515895017066
9.64860446573345
30.4639681369937
25.1981843816177
8.08173594074791
5.33444607302764
19.2693519875224
15.343658134845
2.89278592519461
1.51860259802453
13.7386408593358
14.0712769189277
14.3850306861599
1.0760874820418
1.09084287948354
1.02279603232096
1.00357591523283
1.0022465670927
1.00113821289154
1.00461742572023
1.01643973674222
1.03082669641997
1.01220296652735
1.73826262683684
17.5347411995206
15.3108501827342
1.67928525874712
1.06975307414529
1.04183406654748
16.6687280418998
14.8780122798324
15.0809171324222
16.5571683396624
1.03051743770168
1.03791031578774
2.44197113398624
16.6743534941195
19.350126217941
2.38537920669838
1.16065528702443
1.20588755318137
1.21192116320183
1.16345789138013
2.93309944487711
3.543653728609
3.54386483498553
2.94130526853231
2.09336516314078
2.34754761953718
1.21882872139709
1.16797110454451
1.06018238380862
1.08353962712941
1.31753445120708
1.18730915717559
1.27981961087907
1.40000964086402
1.44409852226051
1.37055600122399
1.48154862101168
1.58034937367666
1.91375546424182
1.63371742850664
3.17543747709512
4.0287297407282
5.44038646202004
4.81571668066174
11.0837758621657
47.6655621692581
45.6290607604752
12.0510331084299
12.6605015175765
45.3008510887283
40.9946400365849
10.9380932301202
12.087935833074
43.6690054139848
50.3856366646461
13.0343103047704
13.6827757526254
50.6534049792255
56.7565186159784
14.6418369032147
14.6877247664124
62.2502516421624
82.6839619683357
22.4021393954933
18.8696734348547
70.3248387302289
58.3655765995534
14.8730650826588
13.804350068492
52.630836139115
43.3355247185357
11.5380725281292
10.4220138397297
39.1428054609423
36.6859178873997
10.1164587577168
8.09214069389866
30.7339296193783
28.8062809196401
7.87207812983187
7.32127397529163
26.6743080834594
22.8752423083802
5.9589004708303
7.5518949504285
24.9937307849843
18.2468043144643
4.85811277802929
3.35675463679085
14.9408937855107
13.0727952441328
1.96761770214192
1.03819569212676
1.01054962836664
13.8826513782811
13.1540361937262
11.9403489575064
12.0348993831149
1.00269377482711
1.00926972627808
1.00318913492113
1.0010650442058
1.00255039502621
1.00907582817597
1.01100364161868
1.32777977078399
1.4077526467133
2.08352059048515
12.6802551179647
12.5438236405849
1.75959815442062
1.00575791447459
1.00167196012323
11.8498111799676
11.8081078022637
13.2079067157155
13.9064488772194
1.00444105293376
1.01019371937703
1.00066102545555
1.00040868251539
1.00011536878944
1.00023840905026
1.00081553665937
1.00027120234474
1.00054131743947
1.00303272778834
1.00117788878667
1.00027394876123
1.00023530786922
1.0003742643201
1.00000226075355
0.99998493182626
0.99995141744267
1.00007121928945
1.00031117958659
0.999979112080003
1.00053520149566
1.00276638082574
1.04113365185991
1.01984927650181
1.00251680537383
1.00524634357615
1.02128304733062
1.01454400396641
1.02595548661429
1.03550022874452
1.05549274634219
1.04607220964429
1.10935974166992
1.14443142830994
1.18461668479033
1.14815403423013
1.21223678436817
1.2534391486471
1.2653089951094
1.22259758449496
1.37267573520339
1.45942013213772
1.47995411677051
1.39058146902763
1.85796990205075
2.23114181373423
2.31695663123836
2.03576274983043
4.89624937955594
5.45534049169509
5.41792835598747
4.88570777199621
13.7996788588588
13.4323060694399
14.046843094032
15.5642675256774
14.5329378907349
13.1711750244413
18.8553046616649
79.4374405445812
96.1667865853696
22.1068160597739
22.7088142681095
99.059708137349
83.4194490406133
19.6356096654086
15.1443793655042
68.1673549276232
65.3039270280723
14.7196841982073
6.54669239705892
4.0197493372681
3.28004734245327
3.75069563196175
3.58357843037485
5.0895055349028
5.05205701379962
6.73757653536305
32.6431533210686
32.1800356736365
6.70306564233958
6.66368410574193
32.3678675974012
33.0280752040461
6.82293768468534
6.77934293199016
32.342960915872
31.936078800215
6.69475986656166
7.25062205525485
26.4657087658986
19.2185746759333
4.84098825832859
3.30583201763174
15.2447391324934
14.81320970578
2.54368763446351
3.52961279861909
15.76178032848
13.4309525816423
2.17776112656325
2.0205633750722
13.7560679956485
13.9444161673736
14.9598405086718
1.00388377766163
1.01157138976722
1.00083413720234
1.00025795887407
1.00009237435214
1.00021651110846
1.00017986038607
1.00009242928719
1.00009075700667
1.0002266126513
1.00034645521219
1.00008057853161
1.00000751784991
1.00030921100216
1.00009549930361
1.00003184700292
0.999942137298815
0.99994159375495
0.999937279185828
0.999918663225387
1.00008729946334
1.00040169368147
1.00360514415317
1.00134143061669
1.00060493346687
1.00095388827538
1.00865256157496
1.00494721440033
1.01971812217332
1.02873904409642
1.03845424574307
1.02900457675021
1.04791901123814
1.05466154573157
1.04677544489383
1.04092398162053
1.0653680723986
1.0718435883768
1.08225097915318
1.0715497959571
1.10408810741259
1.11619850718495
1.13758759922493
1.12284721674036
1.22876127221065
1.27041510164221
1.29887864006067
1.25698106627701
1.28379127348944
1.32646199463352
1.35777445206934
1.3147994886315
1.52327167498401
1.63828724171478
1.6638330105695
1.55284717422404
1.88883737055739
2.20664019639666
2.20139030222462
1.92145552204973
2.11926437531948
2.34594357554017
5.47729042514974
4.99176418471336
4.96047532472242
5.43958001508448
5.89429068993455
5.56549670854909
14.940976462129
13.3724174571262
15.3081118893562
17.2742943586854
28.6668556418019
22.3276021961537
93.6217071866932
113.256634234254
137.09182362197
105.480549078612
22.2097189173239
31.2994302295831
18.0812923738078
18.4203545457837
18.4337402348825
18.1370874133445
30.7282745240579
22.6666274524843
111.624130158671
143.457310438792
121.12506957018
27.6992796495342
22.0331412254095
106.353606649774
96.0505676591756
21.6253379050868
22.0039946385894
97.0534297735147
94.0323798662155
20.55828466528
20.6700056936733
91.2611816786108
87.0498426245648
20.6575677653484
17.5939321279458
84.4966072816302
77.1026487667724
16.5281714335258
18.2656174578548
65.3921487396845
54.6504708994407
16.6773517834256
11.1561196481448
39.762727451891
34.9481219513423
9.3161000439058
8.35188611599181
32.3668922466655
30.2549427834
8.26473971349848
8.25400023446679
29.1212979884637
27.4230608534193
8.13459127522437
8.13009948196819
31.4657580133003
40.5448276064893
8.69525775787655
8.3695691594003
37.4932184916597
40.9016619638042
8.34620842924775
6.83191395137781
36.665913263477
36.0411363308991
6.78342995310304
6.77706010967346
35.8800610016043
36.4695409250609
6.81192098035995
6.89238145701117
37.5486961741071
34.3162924918886
7.62776385844036
9.92813119710421
33.4945847975485
28.0936444143202
6.47336007679082
6.34156332458203
27.2414415189115
23.3247254414856
6.29359346149348
4.77234312072616
18.8791694079269
17.6166117961265
3.72838959724379
3.22605476822588
15.6485539256813
13.4120555441413
1.77132640632504
1.41440331583134
12.5006158998376
12.8236215467185
13.6192668898527
1.00347069819408
1.00924232561447
1.00797588952979
1.00297286489242
13.6044794413033
12.8124968247682
12.4972935961324
1.42103976277279
2.02119928578134
13.7715733294522
13.9329129710978
14.9140124216438
1.00339036564238
1.01192750997562
1.0012524788906
1.00031780459149
1.00022752008664
1.00053646978567
1.00029953091188
1.00010961918219
1.00008599304611
1.00033753322787
1.0006038230483
1.00009448000628
1.00006971471923
1.00212479096222
1.01790067036103
1.00177122303944
1.0007499281356
1.00018469629936
1.00429348812026
1.01464769310996
1.0365704305742
1.01301301322206
1.29171556920988
1.37531919886649
1.07450713343351
1.04165599148632
1.09481481875391
1.13573234699726
1.16532231403424
1.12100423667415
1.16235234624252
1.20814623288727
1.07016354489273
1.0589890964748
1.0887717265467
1.10057834906366
1.08158673315861
1.07380695831045
1.10684062474297
1.11639418009597
1.10621504453172
1.09851377045966
1.11584257159082
1.12634845184768
1.13685172665447
1.12261204648667
1.14774301967182
1.16251524473987
1.16259515114
1.14766639302469
1.1756554391947
1.19160037891492
1.22622234780532
1.20900468517729
1.24718415561992
1.26764633407144
1.39301418495813
1.34976930155258
1.38341820334875
1.43203774537111
1.68868096137962
1.58413774920944
1.61945790150819
1.71886650891653
2.20539742159021
1.95877927498539
2.27201121873709
2.39659872668801
5.53636297835554
5.13498165753731
5.81753005437419
5.93031486157619
8.64862483232461
8.52660077367964
8.59781390132339
8.63480588236402
16.4811608701903
16.2415823641428
15.714588325062
15.2261777956007
21.5700550655497
98.3092722351351
110.436412342249
26.4294909428763
26.1775682751276
112.896128386987
98.3592541423087
21.42434364428
20.4155927541972
93.2662679482382
92.1440798407984
20.7251138768756
20.4145065236295
94.7372928813647
94.1493155686725
20.6708664902878
17.470734882083
73.9839745815046
71.8132825947234
17.3344448912227
17.1216001252285
58.7258695100174
50.1919055728314
15.0258603304225
14.3031013226898
44.1341933937766
34.9120955816414
10.2542776412672
8.4852084199001
31.5334042408661
33.849682965991
8.25331394330356
8.18300264821769
33.0288522862186
32.3938803386656
8.15750569017655
8.6712108678796
41.2778725417639
40.934221349224
8.33373365991007
8.34431515977362
41.0484536479117
41.9802729592936
8.38712790708686
8.46383707093516
43.5358789665567
45.4928130540745
8.68460243691628
8.10065578314806
40.4503468129827
40.4158054907823
9.79296195307934
11.4740483450722
47.7744994956911
50.5825133067949
11.5685077246757
10.6771633140275
39.669573399353
29.899516944381
7.20618960375876
6.1152850689231
24.6100869104684
21.9957086906738
4.59409309485646
4.46613034704432
20.659010330646
19.1420925379958
4.14994958955382
2.52963111158308
15.5314382136566
14.3688365547209
2.07559000108193
2.28244779519468
14.5219548563543
13.4059991501171
1.76203768889139
3.21132966870932
15.6657175921792
16.2725383260864
4.00747699118271
2.76517935094713
15.2036084203275
15.2732521644904
3.30451871730164
2.07517745900028
12.7257496853465
11.9335937128693
11.9846806139706
1.00186603566656
1.00781115015741
1.00207926296809
1.00041489921671
1.00145606606783
1.00839515376602
1.03932260495921
13.1930632038687
13.843591947434
1.01381801784316
1.10447309117102
14.3406538566033
14.1245115126128
1.1138481158172
2.40040753732292
14.5973918649683
16.0448211053479
2.33212534151387
1.8092077584048
17.6605103381285
20.4609210927179
18.9785964214614
3.72596207631812
3.30441838127885
5.48067229761196
5.06281468253903
23.3117710349289
26.3736516702828
29.4749599410939
25.7990178462016
5.09879238972599
5.16671341082815
3.29684509687041
3.76700959222126
3.75921438144605
3.2889725038834
1.29615730220837
1.38422932323016
1.39486278152496
1.30264990628766
2.29235103935248
2.4825960222826
2.73180394172597
2.3934078067319
2.63071051773425
2.96339674988293
1.53097376267372
1.43087496526371
1.61579503246756
1.66352093126751
1.25971831601076
1.21721262383355
1.29713865037528
1.32812725737238
1.13513975028175
1.12194731044097
1.20868715774964
1.21700194968794
1.1716657919205
1.16036885326111
1.11525423949135
1.12637314186262
1.16106521383901
1.15105126361257
1.14371354006761
1.15450880464174
1.18926583787596
1.17790014029209
1.17835565341058
1.1939443157252
1.23228063431982
1.21569488961705
1.25826861721639
1.27821183987794
1.33347729090777
1.30253405772634
1.2853107491888
1.31672669744328
1.37107156070638
1.33046673437756
1.42128120544913
1.476234853154
1.49337444955247
1.44059672419207
1.47078874698633
1.52324188498915
1.74248279441709
1.65276938083782
1.67107471396367
1.75629736877326
2.18820769397846
1.98327272834415
2.02789233867161
2.23474215811147
2.41787372499534
2.29254855118773
2.36160807053314
2.42243936487185
2.42268514946915
2.6520746823578
2.2859952549572
2.3980069111813
2.39715786492726
2.27123417192555
1.98143871080501
2.20691455608792
2.18433442416287
1.96288224673949
1.6393781264877
1.73034017296457
1.72375028807973
1.63251358936601
1.74131430027588
1.78403976475493
1.81108990459256
1.81145157970224
1.81697569502409
1.74582405002226
1.74092090840298
1.73802866344455
1.73270189551143
1.8050267420927
1.81561512612593
2.10109683740509
2.06008953487713
1.92821547177518
1.83716950098046
1.84925611822273
1.79551040503597
1.7231156323015
4.2131960983606
19.6867210882474
17.5848132008593
2.87627216426155
2.65318150735542
16.6705055000487
17.7738848421009
3.16571423693462
3.10174844619783
16.2364826908798
20.8885422767901
5.54743112681279
4.08523910968554
17.9327478938197
20.2404743693126
5.34924488349759
3.98547545275847
19.4065913147118
19.1073581634195
4.72766487299366
4.9164637578816
18.5196916814947
20.3521098498707
5.42982110577372
8.31383001584108
26.0332362474815
27.3471716027169
8.93465876645196
7.58216431606584
27.5643654692234
29.8356909998329
8.18654358766409
6.67991552413162
5.91711813361749
29.3780187325391
29.6871796363029
26.8565993212444
5.42632346747614
5.19957573174802
27.8431844510595
35.6876038575654
35.1727410221923
7.88677347099816
8.58833864272327
3.67398075140165
3.14121669535596
4.40835426728151
5.05626014064618
1.98756613066533
1.93323651744086
1.97210165464079
2.02634407419951
1.37616927637335
1.34251086636134
1.32118964349488
1.35508275391009
1.36003557513109
1.32520937361216
1.37367927066798
1.41082078245903
1.2625545563611
1.24352001758464
1.24681426466462
1.26058531045731
1.21112528786713
1.19528530918149
1.19145267407414
1.20863631247638
1.20049550618353
1.18874966655869
1.23571461766241
1.24842195652768
1.23208912817378
1.21947233671116
1.26810723618874
1.28405031981394
1.34628188167637
1.31772024013868
1.37506561260266
1.41494856645605
1.39288513221487
1.35260169348721
1.3758882398384
1.4144497737288
1.44752181634091
1.41098277722251
1.39297871890445
1.42672222892459
1.42070904842665
1.38462416966681
1.46832137543055
1.51844155253856
1.54888494780507
1.49810672179662
1.50432069514479
1.55574320498184
1.76587816229232
1.6781269530281
1.70518505718008
1.78546490983411
2.19924559193086
2.00955628383573
2.07340965581856
2.26738094071937
2.45174873141149
2.32517528834939
2.54845683594737
2.54552945316327
3.93070532643093
4.13456522812394
4.17713344986628
3.95610179367397
5.90013303077727
5.82292943059076
5.85243444772427
5.90126230396002
8.5643610556886
8.58331078573454
8.63769597807722
8.57966541286511
14.8450569724021
15.5053800246568
15.4375567380791
14.7668556061917
21.5104809203734
101.513534078766
117.399661168734
26.1544437056649
26.2501326720897
123.43299798481
106.269532131397
21.7028107603794
20.4001789772347
102.070854962156
96.8988923077296
20.3450277466879
20.6818283175105
104.010911745452
104.405356135592
20.7902991005398
20.7295322403522
98.769385646511
79.8760108401967
19.7599049637574
20.6022296936266
71.3377114845622
63.2460491026128
17.3029915627458
10.5957879867722
7.55014204194821
6.20299697351882
5.76307966006465
13.1442827541465
43.33362635142
36.2010038843775
9.47690781922958
8.85608131733185
44.5510059739317
42.8712817511687
8.66832872517947
8.65757366502655
41.764047979601
7.60607062970903
5.38982119423248
5.57548637497096
2.52670400134102
2.64696446708901
4.16124644018649
5.10757669219024
9.63122277399879
40.3053923950422
42.4442002483863
11.0258490282412
10.2809685395396
35.4939528679146
25.3375676444178
6.04375803912514
5.04959269547357
23.1096506131084
25.9288038636929
6.62072868780668
4.80195552062993
20.88761557828
18.6575294901767
3.43473406971921
6.36506025738906
26.2695598806546
24.7672118689869
6.00453895630669
9.07329524606326
32.7477900386335
42.4667980437768
9.55639908789642
9.59189469504738
38.5014232371186
33.4325301494917
6.75754065422298
6.60978221328289
31.1274116520666
26.0396375948501
7.07455351640996
7.55710455835122
25.4633122835794
23.7326745224689
6.13889622565646
7.9226804246551
28.6101932799157
32.2169695295105
10.6040938192543
11.0714154424091
35.1013392402953
35.4543188933692
10.3167948628833
11.8066747361233
44.9234742965987
43.2627427986742
44.1087785371105
9.26791069299496
10.1104431771393
12.4855250330823
12.5571296823658
56.6006048952697
51.0614442643448
54.2125407927493
13.5930466175949
14.7624906060647
60.514853410854
60.783828769525
74.1750728065069
17.5488567470665
15.8473643283392
12.7075272389174
12.5909540422356
11.6143589923381
12.2247918209343
5.09564286511626
4.48868147313532
4.49833482871855
5.08749756181324
2.16568738383435
2.06940517944451
2.12874995232973
2.22003502729314
2.07387148966458
2.02657360908615
1.38089895841095
1.4137692219401
1.46372657416799
1.43075918219168
1.49348157783194
1.52891590127646
1.47221536483662
1.43465698391822
1.29993049738847
1.32037459103951
1.31696781204107
1.30161608981789
1.24654318363437
1.26398031280286
1.25817508145957
1.23932605701484
1.29513801637268
1.3185078511666
1.30602769958927
1.28977910442063
1.34616977767674
1.37512596217374
1.45272636156092
1.41072573820669
1.44332428649249
1.48271322571878
1.52850912303443
1.49060225494927
1.456105581485
1.4875329381462
1.48332506764168
1.44921204706376
1.42520455793237
1.45990819586924
1.50198714318073
1.46744830394163
1.44852664682919
1.48483990467465
1.46357060744099
1.42917674298885
1.41830763886772
1.4530724769612
1.48548285738901
1.44969929532165
1.52534090943146
1.57760314274142
1.58793691399264
1.53510893999907
1.70069571278067
1.78898393789269
1.81605776832863
1.73574999399183
2.03004331983148
2.21343689594209
2.30281929186636
2.11180252096894
2.35967269218282
2.49064749219727
2.57910334722949
2.5939342663112
2.64107466816499
2.61725829021754
4.52554910675455
4.7373510898314
4.69276828494314
4.45999405568103
4.75151941769651
4.99985895818186
4.92288193103587
4.64593214293588
5.93848868248904
5.90390616614626
5.97169732155857
6.00840400712483
8.69619375820894
8.74728331699087
8.8937078373284
8.86190331409698
14.7810529918768
15.4489865491353
15.517721766078
14.8445933422338
21.9572775572226
111.889698382323
130.404045634209
26.4166390764701
26.6516716852397
22.2755202159175
118.33955966374
138.510999697829
147.729053703699
26.9373724428447
22.6595527240141
125.393869358105
121.462125003751
20.9005948244647
20.6697846110833
114.628289719249
108.115261378872
20.505609373632
21.9702428296602
118.498180294846
117.866815133617
20.9481802853123
20.8448292803054
110.833979875197
107.590898325315
26.2208071857707
25.1112156254029
94.1849725697181
92.1579658820272
26.5658894058833
22.3479259522881
71.484376199978
65.9416966541065
20.6968475025647
17.5078983292695
58.3825427018146
56.4694021709477
13.4960600743155
11.4892897048498
48.9818840667646
7.73069802489076
5.35799780205514
5.74457141180383
3.19116683023242
3.06426609117201
3.28884396719235
2.03452296288146
2.66804606471415
3.62161351544498
6.39581172409142
24.7251132110145
26.7265969286306
7.49276708851275
7.96153424841065
31.8109849941508
41.2816732468951
11.6932950183845
9.72453289800481
36.9605389001933
33.2205299870626
9.78098785664081
9.04670405076833
30.4642425984764
36.0810643827269
9.10882033372759
9.56386486690179
46.733984553129
44.508291029681
9.34197207303365
9.37831384666934
43.0991446749521
42.47013743422
9.28622690667597
9.20800548153752
42.6346305338852
36.1200150329473
6.78644108007839
8.26692038375125
40.1717665242353
40.1308969323039
8.23090592958741
8.23723713362885
36.7837664675122
40.0310222397181
8.51314365929291
8.2288758783962
31.2174435686137
29.0415678080847
8.44086229964211
9.49131081226605
33.3469281728867
41.4513888876092
13.9267006648651
14.6922312190476
46.0160843834714
54.4724963242552
13.8045983026903
15.9727608471868
60.4027771717807
66.5097846419885
16.258308297307
16.1614352026077
67.7220808365181
61.7106542221072
14.6414769262829
15.6248462968173
16.9691374387425
81.7718367480777
63.9351695379754
61.7622497582723
78.5276112014032
16.7195960295348
15.5059290896412
11.0966019221644
10.9863952028595
4.76781155608753
5.35895297593041
5.14634730486791
4.64272148797537
2.19957000197267
2.28843562055438
2.1225465012345
2.07850200703082
2.13950019109786
2.18302500047603
2.2583150069625
2.2121341718625
1.57021523090079
1.61077433321119
1.5468486016167
1.50556428491289
1.36854667223167
1.39417661307341
1.38831152581957
1.36800680511921
1.30782310374765
1.3296844407223
1.41312202660869
1.37746860346308
1.35650136295954
1.39265607854356
1.4857733475517
1.43412065760085
1.47768150893054
1.52812670675735
1.59619490789863
1.55398584086956
1.51484385138825
1.54425763605052
1.61772124761813
1.58679816854102
1.55214436801743
1.59505601245059
1.53645363656605
1.50563041919573
1.49406553562465
1.53070925097233
1.58024526350826
1.54054114429457
1.50756491504295
1.54390868939782
1.52202902007974
1.48381479465807
1.46192710471144
1.49858614060249
1.53131779837405
1.49200040646414
1.47893851930258
1.51699534824148
1.60424583150496
1.55049863101737
1.56374452475686
1.61985670595228
1.81135198498217
1.72159166512594
1.76405576681776
1.84667251476223
2.22917192954671
2.04868867654945
2.14791491528512
2.33942607887106
2.53392459697889
2.39610776542988
2.43367880114512
2.57741604324224
2.65502943210397
2.68326297321058
2.72874378209523
2.69515442489068
2.73501060652717
2.77179890056668
2.82006910465649
2.77802297333267
4.87212244697594
5.15960700937033
5.07883563437855
4.76451369237745
4.97878697475671
5.29133183274332
5.21008117813939
4.87339248790644
6.10264367917806
6.04365295723735
6.10674992278506
6.21150294975522
9.05850587683037
9.06925241140349
9.26536578243296
9.2886410992474
14.9550970394191
15.639913095053
15.8120816404133
15.1175906135756
15.3312351387701
16.027951357617
27.2756230196951
158.22766432756
133.095375755935
23.1068325114453
21.1754280845055
128.575697764076
145.048471799745
22.5137749875636
21.6326651751319
141.347563674833
132.81472671637
21.2923439140534
21.0950316277708
125.020723958998
120.591580158176
25.211966765167
25.6689463443548
113.837031630063
138.615984023342
30.7084074142891
31.7324497607486
130.224552100435
132.077444791942
32.1438594922263
32.436024214742
119.003408207092
133.123220873662
31.5460592540172
28.4190037702233
25.034794540945
27.0324955282685
109.664164484997
104.819526732643
26.9103688978013
26.3645750366062
97.49441853905
94.204474606841
24.8822114709586
24.466238471789
97.25935754527
101.721748407525
24.625734857051
17.9283016380199
71.4830152025368
62.3281957589661
13.8261939322704
9.47087748808368
50.5697066799082
47.8782907428567
9.0278535656737
8.35419573925677
43.4617463528065
51.6990752730945
10.7751714063302
10.7215978320003
52.9116105405203
50.7309285519363
11.496108870837
11.7757293327822
52.626051854747
55.1825543526391
11.9417473701587
11.0711099246681
47.3694448329591
56.0682017387803
16.367677778368
13.9276391233841
48.2727590567712
39.0785490660482
11.6243139467254
8.50530272262887
32.0227603124997
29.020223910963
7.81966925176958
7.02730654070824
27.6781363774935
29.2242214683149
7.85073344907666
8.19716742311454
34.2606870105497
46.4266544714609
11.9469997820744
18.1301876727566
66.3065555647407
54.2795040057407
15.8663077953492
12.7245914536739
47.1381584369272
41.220381453713
11.7235826414598
11.515274074449
44.1649605096266
51.6594509646877
10.141693225358
9.79207191156541
49.0303088279451
48.9211944631332
9.99877390797476
8.02491571047312
39.8169891831499
44.5498954218951
9.7705093326172
9.12175289996607
42.6496487130982
41.0675892129652
8.66221521605394
8.39220209185812
40.1713482317482
40.8965120180319
8.68043129099526
8.48161798856967
32.7582393846201
32.0187088432644
8.73267032882227
9.99014433515942
38.1422481523794
52.3276022916326
14.0793923260618
15.4378061709403
66.9664226105037
69.0927074396995
16.2386110386328
14.4746107515422
61.2388323575791
61.6821697530081
14.4949769024953
15.593510726551
16.7212974156896
77.8322933698706
61.112015693088
61.6452249529591
78.8292448660814
17.0187016882279
15.9673860449555
11.4424141625472
11.1658679492727
5.18039767405512
5.78158345514272
5.25122958481099
4.79308278059832
2.39699072040638
2.48578141351329
2.62827582976824
2.5189020256641
2.29325705883655
2.36006102389479
1.71723492948811
1.65586587230797
1.58412498685732
1.64272169448493
1.4912077693889
1.44792183051829
1.4457278716935
1.48221062462685
1.61704128575534
1.55592433161159
1.47371562269451
1.52882074663448
1.57579793856662
1.53732717202069
1.64476576372812
1.66801458796676
1.59744146234916
1.57605778370485
1.69358450832485
1.71661977935472
1.709076011135
1.65507153387684
1.79549796804614
1.85867285512468
1.7165236416289
1.68332159756448
1.62771083558267
1.67421973950536
1.59358418219018
1.56194637028699
1.63236775794157
1.66502639297986
1.63578568526811
1.59295884362243
1.5485717224849
1.58698849328692
1.55914211022426
1.51771042025774
1.55250422392663
1.59815094908727
1.56300852189689
1.52122795891264
1.50648696754678
1.54702229283446
1.62884708798359
1.57393345093592
1.59126715762979
1.65081648133401
1.83341710240876
1.74212507546228
1.79170850628334
1.87730009780331
2.24624773540945
2.06795917913475
2.1843134451404
2.37617795405552
2.4121528784762
2.22014137292006
2.47275475210474
2.62339555893108
2.6683041939019
2.51182949665307
2.55166786961938
2.7123760342643
2.75345063383694
2.59019996866224
2.86687141290976
2.82002619768196
2.86454436480046
2.91867834999301
2.96808463290178
2.90664353715125
2.95023206218344
3.02120844488707
5.40601322553993
5.08038133594586
4.97220125445572
5.3227460676617
5.50140378105156
5.17176386837659
5.05427443783277
5.41401950929651
6.1635959185401
6.32848640171113
6.44575556636479
6.21321477016306
9.47203991779296
9.54675380587264
9.82209643228529
9.67465470142632
9.85260072450117
10.0959301950171
15.5885676256881
16.2784428934565
27.6779819482733
170.179028599669
141.60539454311
23.601742419162
21.4972969519983
136.117059064007
155.209650457971
22.7875407161706
22.1695798762523
150.551452263035
149.651245444338
26.8587595461176
25.4900185572941
137.585720849672
128.416439469632
25.1442856150929
30.9105251884699
157.116190328531
143.132748921151
31.6802409980251
31.5722856219572
134.239581145915
102.888279667341
27.2777717992686
27.0599110374174
102.869234964796
96.1103720722665
26.0479807511108
26.2912129463198
104.334429054521
101.966190782693
24.963115038296
24.596236256932
107.505792249616
103.615379051189
24.4496410669886
22.2284711765469
99.3058301153559
99.2628440783579
22.3327810346903
18.6065694311595
74.5471539069263
66.3272844566351
14.5098416630365
10.0612574543592
53.2624007863143
47.1164784556199
9.07722138474851
8.6590348909626
44.9570233940389
6.22585880729782
9.53397344740499
9.50734129043375
11.1300420816683
55.3025654945991
58.8157572056319
12.1198439983833
17.4165818260462
68.3297641419871
63.778458217741
15.9401438662226
25.3754341032103
88.3371879889647
78.1494895596438
23.4774048585345
18.0533760140634
58.5768791297821
45.8356022760229
14.3862855057285
10.0562297392181
35.4578363574352
30.5209766890727
7.91785512448554
7.25530671565488
29.1250214297771
30.4236065086693
7.975304681084
8.41194905629883
35.631555530859
48.7945346924309
12.0537411872597
18.7358352186112
71.8867209459044
91.4222364150846
24.4674113443303
25.8250919280678
119.805144143302
114.073784858387
25.2034257757697
25.4789746821184
110.631716525186
101.297128542473
25.0599516573962
22.8847821915016
81.8865779563148
59.6720052095552
14.4132025707587
15.2729864214203
60.597842423854
52.9321848855183
13.5824261498726
15.3317220302901
57.2589997675561
48.3278644810664
11.4637585168775
11.8077229472278
48.8830468110507
38.5780658152798
13.4627125132168
14.5373628477804
37.3000333994492
44.434945693755
17.2080267486242
22.0943635377535
64.6761259417193
84.2370643559263
22.1332295447346
24.8338160514284
91.1225070076144
83.3941065388941
24.3622507482136
29.7000285634592
33.5926339312847
133.3011570858
92.1608480116679
88.7911256290177
126.646242443278
29.9654674965616
26.9019825091787
18.0121607726813
17.906097483855
13.5920257378159
13.1364726681632
8.72016044946102
8.47758920742139
7.83011998971826
8.30976707407165
6.98614069024058
6.55907445836738
5.33562285269906
5.67611269649797
3.92688455405911
3.79765702750694
3.66457318737008
3.77262346426023
3.54327105894947
3.44443728624633
3.21806484362122
3.3054552887846
3.0797401307433
2.97600998041615
3.04312852109921
3.12501985032958
3.25493027587652
3.14473717620887
3.22898222108186
3.33210586006066
3.46650977664498
3.31429445146294
3.34502365077138
3.46705177905649
3.53464883409088
3.36065588052795
3.27579084650751
3.40613735427143
3.11771092729323
2.99174092237316
2.82543581600456
2.94098825906323
2.51880486456166
2.47013790201891
2.2616682120392
2.35333054919265
2.046866789264
2.00280492316797
1.858678241864
1.91303744485849
1.75928322492626
1.72483850743172
1.65824165504355
1.70367774920688