/*--------------------------------*- C++ -*----------------------------------*\
| =========                 |                                                 |
| \\      /  F ield         | OpenFOAM: The Open Source CFD Toolbox           |
|  \\    /   O peration     | Version:  2312                                  |
|   \\  /    A nd           | Website:  www.openfoam.com                      |
|    \\/     M anipulation  |                                                 |
\*---------------------------------------------------------------------------*/
FoamFile
{
    version     2.0;
    format      ascii;
    arch        "LSB;label=32;scalar=64";
    class       volScalarField;
    location    "1000";
    object      p;
}
// * * * * * * * * * * * * * * * * * * * * * * * * * * * * * * * * * * * * * //

dimensions      [0 2 -2 0 0 0 0];

internalField   nonuniform List<scalar> 
207032
(
83523.882496607
83537.5082797962
83559.117070188
83536.5101258637
83523.0514315831
83513.1508817662
83501.1980598607
83492.4000920602
83496.3507417137
83507.8219035096
83507.8947053916
83504.2148334291
83504.4801239451
83512.7461850285
83512.2977227152
83520.536351018
83522.0514731821
83521.0372038834
83521.3565039257
83531.6275925736
83539.9541011393
83544.4278385955
83531.5885711135
83523.1208636925
83523.3527898475
83530.5485021847
83529.8730447426
83532.0066035364
83537.6020433197
83536.9661443693
83532.4183102794
83533.2775287967
83534.7744530379
83533.5203933064
83532.1044483998
83530.2762376644
83536.7386868585
83545.8676717429
83533.3457693951
83533.3148713706
83546.404845946
83531.1036500827
83528.6047849073
83533.2393650382
83548.2038039859
83490.2337288471
83502.7765137729
83488.9824251861
83466.0687228996
83471.342509939
83486.346016885
83484.5038588747
83459.7212994409
83555.7926431869
83554.6361483862
83517.9375720526
83510.1777599295
83502.7939423607
83502.8048064905
83503.3423117566
83502.7721962654
83501.824091205
83503.4044939679
83497.4899326255
83497.2635596209
83491.8393673651
83490.3672639198
83472.4482540902
83489.0265262023
83507.9515985936
83502.0975513169
83523.2910827131
83563.5703718603
83547.6989846865
83526.9353241292
83510.2589373308
83514.1388333465
83489.0156941484
83478.8629633346
83484.7931897852
83491.486874707
83496.0594501255
83494.9053199137
83495.6687337879
83497.2468727687
83497.3229306015
83496.9304338682
83498.2619295928
83498.1044940951
83500.0201728812
83500.2584619193
83498.5890084429
83499.0930188338
83502.1935601742
83502.3817881845
83509.1427961688
83508.1152819246
83516.5465318757
83516.1328286198
83524.7568228188
83525.7895194986
83533.7482197677
83532.9533655595
83540.8689439976
83541.3436282209
83535.8513197648
83535.2521183257
83541.4937080114
83541.9980727821
83536.9845718559
83536.1617322552
83533.8872065346
83536.8701769334
83535.6582547086
83533.5362170998
83523.6108788799
83533.0123569339
83533.3817589985
83537.3528215852
83553.0334284955
83536.5407367333
83537.5115881719
83547.372758707
83544.6535778951
83539.7742037039
83539.5617455496
83541.6802502713
83538.9133168131
83538.6055580242
83537.5979995966
83536.9721089982
83536.2215544136
83535.9643067883
83532.4415424305
83531.1495920171
83529.7834364982
83528.6611434889
83527.2947635832
83528.6253369787
83529.3007028095
83527.123868132
83524.561927587
83531.6479175715
83515.4405345187
83519.6405335089
83518.538789467
83508.2314416672
83548.959739353
83513.1925250989
83506.1760129409
83502.1850238943
83499.2506688907
83497.1868556809
83490.8854532081
83488.8756357065
83477.6515281587
83487.6727350193
83499.770083981
83507.2220450286
83524.7178768743
83503.8674128777
83495.0373103712
83510.5568352013
83499.1234501171
83495.7144846851
83497.1190812027
83498.2539640872
83501.4191569957
83499.6272539161
83493.0993902666
83490.9174350806
83493.1056109678
83492.6296166902
83493.0763981485
83491.5204804055
83492.5269729198
83493.0611813853
83495.325479361
83503.2658600267
83490.5078945345
83488.9674810625
83498.5190829233
83492.9976161628
83490.7978049197
83491.3421230875
83491.9765647823
83493.4581571422
83493.12359508
83495.4641000754
83495.6720228778
83497.8133565483
83497.9012542924
83498.4756132539
83498.3999783668
83498.8204284363
83498.7384410381
83496.403196311
83496.5835260836
83496.7189278681
83496.5452328418
83496.7037973004
83496.8792852164
83496.9917048019
83496.8665019642
83496.8981164859
83497.2595482463
83498.487941152
83498.3032828526
83503.4838014268
83503.3412181834
83511.3189678605
83512.0558374817
83518.3834301626
83518.6242175224
83517.3652895112
83517.0503737887
83525.2442023405
83525.8180968982
83535.4359335979
83534.8384059536
83541.8741168876
83542.1623381749
83549.9571572392
83549.41676876
83554.425478668
83555.0030219154
83550.0850726116
83549.3646672555
83552.7272487983
83553.9509148019
83549.8391394589
83548.7956505625
83543.4622877731
83543.3249668146
83541.5344723191
83542.0877121959
83541.7352237102
83541.2646750203
83544.1001667116
83544.0457886122
83538.9857088961
83535.5828875904
83539.0419132122
83540.0837584477
83542.8498104579
83541.4666348476
83538.5678966067
83541.7462323205
83539.1289358989
83538.9673421071
83531.141317315
83537.4591009655
83542.3619422668
83539.1899206806
83531.1149062758
83518.5536085641
83504.7993552976
83489.4587947607
83481.7798589604
83473.5610669355
83476.9269784476
83472.2536528596
83479.7227999504
83492.1347489366
83506.5330909732
83502.527189408
83493.3184862425
83496.9529277809
83493.8125724242
83505.7609887677
83503.2450114282
83497.5698098577
83484.6642296356
83489.0553045854
83494.4563018328
83492.9954733548
83491.2017820342
83491.6075510456
83492.360842086
83492.1578175195
83492.5749724745
83491.5851586221
83491.8036306978
83490.5885329661
83491.0556217759
83484.2346979131
83491.8685246431
83489.6842093246
83487.9199654276
83489.9970458809
83490.4647846101
83489.3645385443
83489.3467522949
83491.3312702711
83491.3662230655
83493.4685821621
83493.5318213266
83495.5809281105
83495.3695882607
83493.3781526294
83493.5327480779
83494.6729512456
83494.8872695304
83494.7185213118
83494.5258123955
83493.3892163109
83493.4338853496
83493.1665232687
83493.0515904177
83491.6435550203
83491.9353720273
83495.1690292776
83494.9541661059
83496.5950631583
83496.8242397348
83501.5244455677
83501.6815890635
83511.315954968
83510.3874642668
83518.2703579262
83518.0392424938
83518.8555587738
83519.0938014537
83529.6144655987
83529.2628428137
83527.7281755918
83528.0823564299
83539.5639445705
83539.0253591031
83548.9136673466
83549.5594980307
83546.3507264627
83545.7113359643
83553.7092160668
83554.0534417995
83561.4923381812
83561.2468185159
83569.170994164
83569.3504246577
83562.77449962
83562.1802354393
83567.596905704
83567.9985627816
83560.727475941
83560.0579892879
83564.8987789744
83564.8057490898
83557.5264487949
83557.6296876075
83551.1749084089
83551.6266956439
83546.5944518629
83546.0377065814
83548.5572065333
83548.9122148888
83546.0453675325
83545.7105908637
83546.9733175687
83547.0272805547
83544.5368937289
83544.0024789849
83541.8300401792
83543.8598295493
83545.6677734512
83554.4500431948
83544.9874890226
83543.6523525455
83545.012105029
83543.8533460972
83544.0953901691
83545.2265776968
83540.6228762145
83538.4095894436
83529.5549106215
83537.9727697913
83542.9675442902
83543.2936382771
83542.3600957097
83542.6652546349
83545.7865384364
83541.8041923893
83537.7782563569
83533.0103716598
83535.4242723565
83536.6271339359
83533.5810379201
83531.5439976787
83533.760012551
83537.2033850804
83540.244844166
83540.7686704759
83530.6133697934
83540.3071508026
83534.3840084727
83530.9342461209
83531.3821928973
83530.0109908358
83519.7734276131
83520.3179109231
83522.1885170892
83521.3082383424
83523.1305784264
83526.8319697436
83519.7885483727
83516.823740786
83521.1453010345
83527.0018284778
83514.394045181
83517.2458841667
83516.0867063258
83521.7436280014
83523.9590333919
83515.2087038341
83515.0687280747
83529.8336751312
83515.4204150597
83509.5697826802
83504.693170149
83513.617666441
83503.2263064091
83497.1555572143
83485.6793877847
83483.1040576958
83480.4442213515
83480.056007681
83467.4864179463
83463.4275235638
83442.8381839865
83456.2945740773
83438.6463445306
83432.5709894175
83468.5721338866
83468.6873721272
83481.1080121114
83475.7630460508
83493.2954355397
83489.976565776
83491.4498491542
83492.4999509968
83489.0507431529
83488.6059589503
83491.0901480162
83492.0938988974
83489.2437143505
83489.0779385682
83488.9441971586
83488.6465823687
83484.6061440313
83488.4424996263
83487.6819072807
83487.1224910417
83485.2159881195
83485.5468994119
83485.1535312862
83481.8400299579
83487.4023255777
83487.5522212798
83486.4109589994
83487.0345460077
83477.4319445119
83482.5325189849
83483.4098286068
83482.6114030775
83485.5020834139
83485.7029436552
83487.4214894921
83487.3642234527
83489.1820382326
83489.2338411443
83491.354649299
83491.3835310153
83488.8990952975
83489.2448644357
83492.0636680335
83491.8604557423
83493.2146680069
83493.5837568174
83494.604906329
83493.89518137
83493.1970545112
83494.5830092191
83489.1427566706
83489.3860591116
83488.5095695164
83486.8318692257
83491.7152833248
83492.2919059945
83496.1615390855
83496.4219055368
83506.4360656907
83505.8891343376
83511.9573777259
83511.6105267226
83515.8705718041
83516.1066668292
83526.4390756011
83525.9265336676
83528.5531988672
83528.9829519266
83543.2363307619
83542.8216200245
83542.6617220335
83543.2369381953
83556.9819549547
83556.4714127538
83553.6823503344
83554.2861826443
83564.5944948414
83564.2409261883
83559.0186626719
83559.3259206838
83568.6498216217
83568.4498393122
83577.7664819047
83577.8546816328
83587.4665374419
83587.5444686525
83576.8780388051
83576.894750302
83584.5710582127
83584.8097603086
83574.2783973874
83573.96997117
83579.8411685267
83580.179956672
83569.4696222763
83568.9706634481
83561.0680613205
83561.3942301341
83554.1076221124
83554.0539868161
83556.0930559087
83556.2007535122
83549.4198001674
83549.7521850706
83549.2229668195
83549.4445711433
83546.0102247588
83546.1514276985
83547.2723870926
83546.5935650785
83544.7633548118
83546.2078948897
83545.4852697072
83545.5026853632
83544.9163536427
83544.1930478272
83543.2278533051
83543.6630378089
83541.1691424955
83541.6875254716
83546.6447588487
83543.4058872544
83540.7087815098
83543.7020303998
83540.8254319269
83537.6721222928
83531.4666938528
83533.8243248405
83523.4571820592
83529.8554158655
83523.8173363582
83520.2496576943
83515.2866587854
83514.8974413798
83502.5621200706
83503.2457024637
83509.9509033091
83509.0958167001
83512.4961878797
83513.1778047641
83504.9500259277
83504.0723762845
83509.2873534402
83511.8281829127
83518.5561667466
83514.5704005875
83505.3160525058
83505.4407207668
83503.1763176794
83500.433113803
83493.1237286007
83493.1557719264
83487.7778837816
83487.7693804113
83478.3034480108
83477.3084865591
83467.0109481709
83466.8181866149
83454.998169718
83457.4375299239
83450.4841057812
83447.3409990889
83429.3598633119
83425.5884480368
83429.419418054
83420.8191148199
83407.6287694483
83408.6212593209
83384.8588603801
83385.5668250803
83428.8032981371
83428.5176337047
83458.7208684473
83459.840962112
83474.4167824834
83472.0015850418
83482.9007037555
83483.4538523533
83480.289427783
83478.9811450359
83485.612219932
83485.9910568026
83483.8190243116
83483.3346414677
83488.1467363628
83487.4982845223
83486.2940767295
83487.4574402936
83483.8984524672
83484.6160850493
83483.5407841451
83480.7561584043
83479.9461238132
83483.1923319651
83483.1355413504
83481.4340152358
83481.2736910732
83490.7051899042
83486.9077554626
83484.8678416801
83487.8361467006
83488.8094105206
83491.002182307
83489.2788040845
83487.4275563605
83488.2292039513
83502.6846954959
83493.105432676
83504.3590609794
83533.471668701
83538.8063219681
83498.0216972349
83473.9945214631
83447.7672783455
83461.1753714311
83478.5794785862
83482.3669564162
83478.927082863
83475.6646919881
83468.9386168853
83479.8839712887
83483.1688510354
83485.0890087349
83481.2580731651
83464.145652527
83477.1266381839
83476.967162659
83461.5133401214
83486.1216189541
83487.0130275677
83488.5299322339
83487.3508443839
83486.045100694
83487.9377939848
83488.8873285765
83486.2923521986
83490.2950889231
83491.2262263259
83490.7942766035
83490.5581650369
83494.3640019995
83494.6954119505
83501.268414905
83500.3770941163
83507.2337237053
83507.7487492887
83516.2347075013
83515.2563856132
83520.1285820328
83520.8847764751
83532.2711558617
83531.5131274678
83539.7391348686
83540.1177578578
83560.891105532
83561.0012003449
83565.0335008737
83565.0099861817
83559.1414298314
83558.8187859944
83571.776617622
83572.3397012906
83568.8392139659
83568.5353256355
83581.2251531628
83581.3304698082
83575.3207255878
83575.1091052393
83586.5453862026
83586.5543148838
83598.4139482332
83598.7811903343
83611.3973528916
83610.6139869807
83597.2048743454
83597.5980505199
83606.8754117942
83606.5991446601
83591.7872289696
83591.9804557431
83592.6151903959
83592.112895156
83593.9692553283
83594.0522647346
83587.3322755279
83587.3714625739
83581.1776970003
83581.2429105628
83575.5123822247
83575.5038937542
83570.6659792181
83570.7507598582
83566.8156014488
83566.7269846562
83563.0194088872
83563.0897473518
83560.0320188565
83559.7465751587
83560.1470614026
83560.816924378
83567.1343852209
83566.5965391174
83569.4609480952
83570.0534376324
83575.8860845665
83575.3766132982
83579.8900795074
83580.4404890512
83587.9173488397
83587.6326405473
83587.6489963208
83584.6500024372
83591.4430054497
83591.7466086746
83589.9889000125
83589.0444474676
83588.4369815614
83587.1480551671
83582.601031712
83570.3812196101
83556.8353924747
83532.5990961803
83522.4915763157
83494.5895519785
83463.6830528511
83449.7927648628
83428.4049219259
83422.1629772148
83414.0537693073
83414.1985351782
83448.7702945839
83451.1181297123
83470.2782806131
83467.6906068563
83463.54761984
83465.9532735105
83477.2996960143
83475.9083420202
83475.1275107457
83475.6817667781
83482.0090689472
83481.9064943521
83481.4634708008
83481.0636644701
83481.5310105619
83476.6159534028
83475.7303528127
83482.1179144129
83484.4583811241
83485.4300673656
83451.9777940716
83476.7382569556
83489.1439520535
83474.2560447345
83462.8589911739
83492.0539460078
83499.0177853067
83484.0565650403
83521.3118571745
83507.4640721701
83505.1255445833
83506.7604359433
83505.3495425048
83505.9604536561
83476.8945149364
83494.2618911917
83495.0514173286
83483.8275643642
83529.0717375582
83523.2943084795
83515.2306273786
83514.7103778108
83508.8441124903
83509.5526900519
83513.5421147507
83512.6673393429
83523.5497145593
83524.1473132446
83533.7809482193
83533.5526612426
83539.4056508172
83539.6175985208
83548.695055403
83548.2963700928
83557.7256878373
83557.7924574133
83570.831925028
83571.0485812507
83581.796802797
83581.7037823086
83588.3798163197
83588.314706083
83590.2398225579
83590.5087516566
83590.7369701871
83590.2321736057
83585.9863574655
83586.2771360441
83602.6837174407
83602.8033663549
83595.442963326
83595.2741655052
83610.0447595889
83610.6369225542
83626.2722111326
83625.1665981655
83640.0218536509
83640.559536483
83622.784323301
83622.4043248101
83623.3980259304
83623.7756965327
83626.554126535
83626.5556879152
83617.031951813
83616.9800884821
83609.0560047286
83609.0459331034
83600.5623341667
83600.5583817875
83602.6710325908
83602.6865438424
83596.2172220528
83596.2562795901
83588.454158107
83588.6055594074
83582.7677913899
83582.7514081746
83576.3522004956
83576.555425325
83571.9046759156
83571.8302250602
83567.3049650576
83567.4581310457
83563.9982629874
83564.0344710782
83561.8435931762
83561.3536310289
83560.2535450156
83560.7021375687
83555.1255332244
83554.9573718435
83555.141260408
83555.0928312925
83550.317232401
83550.6428411738
83551.2711487527
83550.957682264
83546.6834363476
83547.4805633636
83546.3242176992
83545.4827924392
83541.9844902448
83540.7144481728
83542.343234387
83543.3916168614
83542.1624928977
83541.1594803309
83539.6290423836
83540.8822910183
83538.0514825124
83537.2173667896
83538.2497766182
83538.9473689153
83534.9764525038
83534.1959292962
83530.1741741974
83530.9219404262
83533.5846912912
83533.9780356897
83525.2123136384
83526.960492018
83517.9392620747
83509.2711120655
83525.7075199657
83524.3769396941
83528.9889990956
83522.4149436416
83506.7676526733
83491.3890092178
83490.6930133483
83490.8839972504
83500.0761978654
83498.8760819635
83486.9402074846
83487.0985888917
83495.1360795558
83494.6133804864
83499.7035998721
83500.1327394495
83499.7177634957
83496.3502939015
83489.4515011614
83485.8593452305
83457.217416583
83439.1955198101
83393.3172867481
83391.0170412707
83402.6563811504
83356.8360174101
83354.1239909324
83332.0485143679
83328.1891289672
83324.5436679553
83329.2568330114
83361.1182948408
83356.1631475153
83338.7865022869
83343.0810263165
83400.7762632085
83401.970278037
83440.6841035818
83442.0620707819
83433.2376324168
83431.296006708
83466.9424664341
83465.2809135236
83470.7702364674
83470.1926115893
83487.4037399305
83475.3255194289
83476.256921535
83477.4687267211
83487.9682814917
83480.1759867227
83483.0606197611
83484.1018831759
83467.2281866836
83481.2453751687
83487.6380384773
83482.1790637439
83526.7015795518
83496.7642689147
83500.665362772
83493.439078979
83532.7620700271
83517.5173388405
83523.9664157567
83550.5618191337
83544.7273528985
83520.3092746916
83512.881365809
83524.9897082891
83516.464739115
83516.2528765889
83512.4078253819
83511.963695818
83506.1472003081
83506.9492625923
83506.7283723426
83505.3663598171
83507.8218577534
83504.4616038879
83500.38704114
83502.0571452568
83503.6997033398
83503.9109339092
83503.0316216045
83502.6808668002
83503.6465614349
83504.5165379869
83506.9835372735
83505.8952784498
83507.9923344232
83508.7873329541
83518.7692888742
83518.1894500376
83525.8236833849
83526.328460335
83529.1646380975
83528.9529399612
83538.7610198743
83538.913973243
83548.9217071591
83548.918258327
83559.1219366292
83558.8210383508
83569.5717323119
83570.1904439575
83585.7538614649
83585.1615347128
83599.8186031662
83600.1429434383
83608.121069532
83608.0175318486
83610.9954554627
83610.9694501196
83609.5980598059
83609.6856004363
83628.8508285897
83630.1124958049
83620.8666339438
83619.8893470433
83637.9024804722
83639.6703361457
83656.900611495
83655.8627285183
83660.3033964024
83660.8739328572
83665.5454010882
83665.550201582
83654.5979635344
83654.5339034246
83645.5307345176
83645.5074747012
83634.7839082199
83634.6501359007
83637.3817493048
83637.2234195215
83629.3428750871
83629.5993622514
83619.0340282273
83618.9747420521
83611.6095790382
83611.714721196
83612.1232782012
83611.9856151773
83603.5911350997
83603.542228593
83596.9687722953
83596.9801830187
83589.698239785
83589.5826235507
83583.7046478323
83583.7340530996
83577.6335428962
83577.4684504632
83572.5603297684
83572.6756429279
83568.0208601459
83567.8313235465
83563.9981185335
83563.8149251451
83564.0775295743
83564.1446044142
83561.3446053984
83560.982684521
83560.2839889549
83560.4305786254
83561.1562373622
83560.8722377953
83560.0718434074
83560.1506493714
83555.2607645355
83555.2744916712
83554.2238930798
83554.2912068077
83549.9328946456
83550.2727385348
83548.822792277
83548.530043323
83544.1460395115
83544.9328988507
83543.426652125
83542.66584802
83539.6804961924
83538.6539794379
83539.9924759625
83540.8803125484
83538.846621233
83537.6219007887
83536.7627333809
83538.0461212659
83535.0571954061
83535.8512218034
83534.5576809176
83533.7079724099
83531.3866810938
83531.6539316956
83534.8886895412
83534.6672519583
83536.5884264264
83537.0399229968
83533.360244803
83533.4157731509
83531.8252382327
83531.0640053034
83531.2508711201
83530.8183022545
83525.5490460201
83525.950485421
83525.6246251151
83524.4703474066
83518.4345680383
83520.804090336
83506.8417808366
83495.7838644195
83488.7366428074
83494.4864498641
83479.7836360398
83478.8855206035
83462.5813594335
83462.9585987846
83476.6707611101
83476.9949903839
83474.3437854123
83467.9730766003
83453.9245439189
83446.0039275291
83440.5823770242
83411.2887665169
83390.305202011
83358.5652043538
83308.6245443879
83318.5534641061
83326.2957069954
83321.6423003258
83312.3618777885
83301.9232656367
83303.4124333766
83287.9682566676
83292.3253724629
83312.7938356045
83315.0522175071
83348.5261120089
83342.0337168081
83380.6650654983
83375.1835675898
83382.9411077532
83389.0446054471
83386.440613186
83383.1295046835
83417.3696453037
83416.1994340777
83435.4676476109
83431.6197836854
83461.5597954179
83458.6852947001
83458.3450542247
83460.3588621696
83465.8137640932
83461.89768681
83463.271788376
83465.1776918869
83485.3068743715
83480.047709146
83488.6432815897
83499.1750143828
83492.5916283348
83485.7169139112
83487.6146965886
83490.1220710952
83487.5410761172
83490.9872164042
83495.003213827
83491.179940022
83513.9158813428
83505.5661965237
83514.0319067739
83532.131641624
83508.0906091973
83505.0423697138
83500.4917664214
83509.7819133674
83502.3365865242
83497.9080541009
83490.4849644218
83488.3653211068
83495.2938051874
83494.5323509565
83497.7509499224
83498.6318306232
83498.1376237147
83497.6075627876
83490.0781305718
83491.1474496446
83493.4534485773
83492.2866388272
83499.2942765628
83500.2247453412
83508.3296356185
83507.8256217649
83518.6063258251
83519.1809144271
83531.9813925398
83531.8456082216
83544.997105824
83545.0094527763
83551.5008708702
83551.6334254156
83557.7348668785
83557.2758954061
83580.6187170071
83581.7515583158
83601.7109900501
83600.2215179869
83618.3468751285
83620.0613931478
83629.7890794062
83628.0806039702
83631.4128586141
83632.9332275102
83655.6870597136
83652.8603615293
83648.9042161345
83651.24136254
83670.7294880815
83669.1439642791
83675.3297774268
83676.0805677795
83681.6623885777
83681.5832083889
83672.4168018583
83672.3340138928
83674.7352930507
83673.9364138039
83668.2436918009
83669.0556310254
83656.9281818733
83656.552551125
83648.64668618
83649.1098435224
83648.351838471
83647.6594862388
83637.0044731607
83637.4152564432
83629.4892565894
83629.1257493533
83619.4482618459
83619.595201762
83617.7286552981
83617.538288303
83610.3972652951
83610.5991009186
83602.8758298393
83602.8576804438
83596.4040386441
83596.4602039772
83589.7837250735
83589.7943817684
83583.8628701604
83583.9067561504
83578.0812254718
83578.1180607246
83572.9406238784
83572.9143569365
83568.0447605175
83568.260305456
83568.2151898245
83568.046579649
83564.0256198699
83563.8888108692
83563.9178809299
83563.9406751065
83563.5232550291
83563.4170569456
83563.1076620049
83563.1120837274
83560.4908048957
83560.2008994731
83559.075968559
83559.128747745
83559.1584499144
83558.8605427402
83557.5994199149
83557.6445137722
83552.9112249878
83552.7734861371
83551.0918222697
83551.2292233577
83546.9533305851
83547.2533866472
83545.2255373094
83544.9646951099
83540.646365047
83541.3570072959
83538.501302971
83537.8426335836
83534.0370455443
83534.6597142378
83531.8675046323
83531.0453630507
83529.5808229972
83530.5212993776
83527.5298182386
83527.057133088
83523.0461621836
83522.8642119472
83519.4657534862
83519.7404977727
83523.632095057
83523.5649890058
83527.6914264837
83528.1608952069
83522.9580564165
83521.8814997035
83525.9591170081
83528.7516440025
83525.1419865979
83521.2597760669
83516.5498292934
83517.89178611
83540.5434764837
83527.052096521
83520.843607462
83511.3654920106
83532.4778540995
83524.8476762016
83521.5213522136
83515.6510076245
83520.7038377862
83528.501688718
83516.3566888176
83517.455743828
83509.9624610844
83518.8134738774
83506.650615666
83500.6585071945
83486.2879976638
83485.0211056437
83483.4603874913
83479.552298437
83466.2653815087
83463.1111119864
83446.72951368
83447.4586551682
83436.1461623624
83436.3479258399
83450.7642219866
83452.0351910503
83436.9123266596
83432.3379579368
83433.3398638601
83427.3140532339
83407.1588096626
83411.1632269737
83406.283196063
83400.6012902205
83369.2119611441
83367.5106757493
83346.4664552983
83346.1264948866
83333.0973594997
83328.6168817425
83303.4569969097
83310.1575218658
83308.5307003535
83307.3233942391
83325.5150231942
83302.9292406947
83295.328358627
83308.1456751853
83324.4906490072
83310.0427160264
83300.9596557451
83311.0736841875
83301.9945446802
83293.5586129711
83288.7906014862
83300.2337276747
83291.6517154858
83281.6767737451
83273.1807969791
83279.302775174
83291.883691624
83286.1548150065
83312.8447116961
83322.4540292847
83320.924605043
83330.0306367184
83327.0629798203
83317.2937757061
83316.1542173497
83317.0470520886
83354.0969249838
83354.3279738126
83347.6884141278
83348.0055169838
83341.4567137754
83341.173649681
83334.5700057861
83334.6174707223
83380.6071787695
83379.6701035419
83414.948103978
83416.0894281012
83442.4636559401
83442.1755187544
83445.1420872389
83445.4138926025
83453.2287940348
83453.7361329988
83460.0093093456
83460.0554901281
83468.4834000025
83469.3610785313
83474.3699250781
83473.8234385462
83482.5773088877
83485.4086065176
83484.3459999661
83485.8507643626
83488.7936966528
83487.4971027923
83478.4751610771
83480.166189005
83484.1900702706
83485.6907127738
83482.6827458015
83481.2586183318
83468.2353931579
83470.0219785547
83473.6003612196
83471.8484053065
83482.180654673
83483.3009274006
83497.0142031055
83496.2931064133
83514.1262664215
83514.3960652462
83535.4224329492
83535.5298592488
83533.2672617194
83532.9906478548
83560.4854482228
83561.2415990146
83591.6229873127
83590.2210566862
83614.9051867794
83616.9108303984
83639.8809134512
83637.1912772001
83649.2858415434
83652.236576791
83672.602578632
83670.3754997766
83674.6225037692
83676.6566230048
83686.2311309662
83685.3745432798
83689.9055490901
83690.3057821507
83686.1157263275
83685.8960442482
83684.8718490452
83686.4041107799
83684.3936619104
83683.0198537268
83676.8036741653
83678.7045644273
83671.8947849189
83670.4655628834
83665.8127190769
83666.964769226
83656.2541377903
83655.4204946359
83649.6377863001
83650.4128251506
83643.2002541438
83642.5531743095
83633.3592003301
83633.7702613545
83626.3092842347
83625.9605518459
83620.6476404008
83621.0126035997
83613.908919151
83613.6685455584
83607.4609613564
83607.6768878028
83601.0118699607
83600.9072284086
83594.9887732717
83595.0814846737
83589.0161105351
83588.9900098572
83583.3336449803
83583.3731346104
83577.9529902619
83577.9661576039
83572.877731216
83572.8498766751
83572.4352728693
83572.4887399676
83567.9825399319
83567.7874693447
83567.3403508914
83567.4784950857
83566.8291840548
83566.6635927692
83565.8192512352
83565.9123667138
83562.2758664066
83562.3607856022
83561.6449653062
83561.637365907
83560.5964924815
83560.6858275262
83559.7905089453
83559.7784186928
83557.1662142607
83557.4387577599
83555.8554284637
83555.8199676612
83555.2709627637
83555.554256723
83553.9478810249
83553.8780071777
83549.1533403255
83549.4326818045
83546.9301057257
83546.5442575881
83542.4487071747
83542.1871014831
83538.3925424455
83538.6139265149
83533.3915874957
83533.271938629
83528.9506270111
83529.5477006874
83526.7008431962
83525.8452582961
83524.2300980858
83525.3252897359
83522.2823843246
83521.4269536067
83517.1432022589
83517.2918053968
83513.7215996781
83514.2934517242
83512.6542061168
83508.8367094921
83514.4008495882
83515.0458863494
83518.3261158943
83517.9959204896
83511.6896980854
83511.7505660243
83506.3756928345
83506.5359730848
83509.4484024949
83508.7200679394
83501.6501069199
83502.0654668157
83508.8829369649
83509.6063598872
83504.1315678847
83502.5021957044
83510.6306790022
83515.7064752508
83503.8880058336
83500.0896353199
83493.3927757406
83499.1603152757
83490.1235929463
83486.9797560624
83478.7940853755
83489.4251528042
83466.6526382675
83468.3842242913
83452.575701754
83455.8273793011
83431.2874003298
83429.4167905652
83414.8657833056
83416.5115278674
83399.6053427129
83396.8371427466
83420.872858994
83423.3414857425
83415.813870311
83402.5930997772
83373.0711905475
83379.4188039385
83381.1641928978
83356.9888610123
83354.8371655198
83331.0602474571
83334.3005751371
83324.2398431297
83323.5472554704
83306.2374664727
83302.8549338092
83307.6634864724
83301.4414313329
83298.0348067208
83306.4166484552
83288.4964404087
83284.8649939875
83279.0926128659
83280.7643171001
83281.9959754061
83277.0285769783
83286.1912304754
83292.0713465763
83286.4131355232
83280.6834316383
83277.4841221983
83283.8906563955
83278.8152748948
83272.5564515737
83265.6212450187
83266.8050225934
83261.7139860364
83261.9251337707
83257.0804396168
83256.939504571
83263.0253827145
83260.4860044572
83264.3973614319
83265.6585416285
83267.8246444714
83260.0600522191
83255.6900646466
83252.2249779371
83287.0055035267
83283.5332811334
83270.2913080076
83272.6182151024
83253.4391752878
83248.9429432513
83228.6501022468
83233.1833482087
83284.0612053205
83280.7019595615
83266.074902249
83268.9479464805
83250.8726669755
83245.2938287479
83221.4023462667
83231.1743205223
83210.892192189
83199.7397236087
83181.4967158161
83189.2680315812
83216.9485816878
83211.0120324092
83208.1123258872
83210.063147256
83207.78192701
83206.5614341377
83206.7969851331
83207.561819261
83208.2707959215
83207.5810071883
83279.3661812315
83280.8585188979
83281.6955802877
83280.317918346
83283.6327208519
83284.0082744753
83309.164183353
83310.1517669316
83316.062016705
83315.5200681653
83325.4004584752
83325.5357610352
83338.6525998264
83338.3889056376
83355.5009238828
83355.8217221682
83377.2669791498
83376.3836393387
83399.3818506782
83400.5517280194
83426.0040948551
83424.4380723586
83447.7825748501
83449.4930735737
83472.2255345424
83470.2337696805
83488.1630386798
83490.180088396
83506.3161190114
83504.2895916836
83515.8540656467
83517.6459538445
83528.6986103114
83527.2107340131
83535.2466852288
83536.2298703006
83547.2234691795
83546.8142829472
83559.9220714786
83559.9029285104
83578.4873195171
83578.5013012612
83603.1097734299
83603.5708018963
83625.7834826434
83624.7553324898
83641.9318105768
83643.088319869
83647.1228033678
83646.0341414329
83645.728200029
83646.6034455067
83640.3414444261
83639.6113279786
83634.1331568489
83634.7496722358