/*--------------------------------*- C++ -*----------------------------------*\
| =========                 |                                                 |
| \\      /  F ield         | OpenFOAM: The Open Source CFD Toolbox           |
|  \\    /   O peration     | Version:  2312                                  |
|   \\  /    A nd           | Website:  www.openfoam.com                      |
|    \\/     M anipulation  |                                                 |
\*---------------------------------------------------------------------------*/
FoamFile
{
    version     2.0;
    format      ascii;
    arch        "LSB;label=32;scalar=64";
    class       volScalarField;
    location    "2000";
    object      omega;
}
// * * * * * * * * * * * * * * * * * * * * * * * * * * * * * * * * * * * * * //

dimensions      [0 0 -1 0 0 0 0];

internalField   nonuniform List<scalar> 
207032
(
3.36598494164189
8.27055393892785
28.521987965126
25.8065309317696
7.03433193325281
6.83459356372474
25.4349472038191
24.1323323346696
26.6476705496494
4.51399897668922
5.11761636631321
2.58168848626713
2.17017592530978
2.29018471457943
2.69036537505343
5.54696433917892
25.4553319683278
28.3486800621699
4.6868958336833
4.87109988287688
30.1645792923114
27.163183386949
6.09206438838456
2.90677814949294
2.41254587909895
2.59132798908316
3.15761913683131
6.82464703616092
29.1525849435597
31.9069929659432
5.3860420855039
8.5610217687899
37.0413163232388
34.5727670147163
9.77690019327069
10.0642571332055
35.8781352142164
31.6733024110263
8.76536753111718
9.62912570810765
35.4636920579676
34.2073590590161
10.051473686099
9.64848934037909
30.4639451016258
25.198174120959
8.0816807793478
5.33444059989887
19.2693485856636
15.3436575599482
2.89278696320292
1.51860484825073
13.7386407155616
14.0712768616782
14.3850306868695
1.07608736912976
1.09084275556838
1.02279564914774
1.00357567038705
1.00224649943193
1.00113820769623
1.00461807513428
1.01643865782142
1.03082927688639
1.01220437041685
1.73826463815227
17.5347410901747
15.3108499526191
1.6792867795068
1.06975348545319
1.04183358786244
16.6687280194377
14.8780122128827
15.0809171323336
16.5571683387275
1.03051748734301
1.0379103515701
2.44196771574828
16.6743529633395
19.3501258549707
2.38538202856001
1.16065710589814
1.20588735686002
1.21192092909024
1.16345936038007
2.93309504955574
3.54364047493309
3.5438450346994
2.94129861918882
2.09335982038106
2.34753110010606
1.21882521811394
1.16797132735111
1.06017307295434
1.08352542060193
1.31751218462736
1.18729297110955
1.27978615329058
1.39996931462938
1.44402346447882
1.37049007255961
1.4814601672913
1.58024894753263
1.91361208232784
1.63359464935135
3.17528385290288
4.02856156850111
5.44013377143114
4.81551838946114
11.0837837548376
47.6654476384422
45.6289597233233
12.0508665086506
12.660313015052
45.3007448378734
40.9945611066132
10.9379289246641
12.0877707215507
43.6689148070721
50.3855084845443
13.0341592580606
13.6825669395951
50.6532757698449
56.756354053702
14.6416751312957
14.6876769023057
62.2500419142143
82.6835378837744
22.4020176199337
18.8694883687503
70.3245394769592
58.3653806021453
14.8728546523198
13.8036878386206
52.6306020128344
43.335299747627
11.5376659096314
10.4217106061937
39.1426819426218
36.6858430962165
10.1162633357776
8.09203240689826
30.7338757753948
28.8062541789791
7.87201406068735
7.321229555532
26.6742959684974
22.8752366233295
5.95889328572259
7.5518837647188
24.993723860641
18.246802597301
4.85812799566891
3.35676235477096
14.9408932082884
13.0727950183696
1.96762135261328
1.03819361893458
1.01054840344886
13.8826513752863
13.1540360556708
11.9403489584173
12.0348993820689
1.00269340956962
1.00926888967343
1.00318864747133
1.00106480272893
1.002549905343
1.00907566206678
1.01100302330543
1.32778012559586
1.40775596859839
2.08352259449703
12.6802550937901
12.5438237885933
1.75959918298523
1.00575802066021
1.00167196868882
11.8498111810107
11.8081078016986
13.2079066113762
13.9064488384401
1.00444279468472
1.01019551348553
1.00066090453575
1.00040819281214
1.00011507968606
1.00023780200091
1.00081492078325
1.00027088199348
1.00054108783336
1.00303230131934
1.00117766604897
1.00027401113436
1.00023527711747
1.00037424581266
1.00000220470479
0.999984904404606
0.999951215365849
1.000070934335
1.00031012520885
0.999978325828115
1.00053504552946
1.00276585108922
1.04113023975838
1.0198478417018
1.00251353186769
1.00524116459798
1.02126535530993
1.01453074577863
1.02593700722285
1.03547782335552
1.05546158964748
1.04604471487722
1.10933312032886
1.14440195208628
1.18456839669666
1.14811269024136
1.21217221106159
1.2533649105647
1.26522426793198
1.22252472797604
1.37257246151519
1.45930252641414
1.47981977905185
1.3904635423881
1.85780836205723
2.23094270146263
2.31673157124956
2.03558877632404
4.8959713852683
5.4550053454374
5.41762566030159
4.88548566712624
13.7996254212538
13.4320721817601
14.0466492026188
15.5641764495618
14.5327803044003
13.1709101245185
18.8550822565338
79.437013079414
96.1661547441857
22.1066538917322
22.708646119549
99.0588014305281
83.4188366613021
19.635367201521
15.1439932139485
68.166963394943
65.3036238860832
14.7193011397615
6.54635804154995
4.0194186974103
3.27961622088602
3.75029061798215
3.5831500580585
5.0891348777989
5.0517245267765
6.73716246776037
32.643373575293
32.1801758638186
6.7029253012187
6.66360661488709
32.3679505227823
33.0281465643319
6.82284973547072
6.77931813796221
32.3429671623951
31.9360816615037
6.69473848306957
7.25060710154724
26.465707506915
19.2185744834498
4.84098025965569
3.3058349009057
15.2447390995229
14.8132105810107
2.54369228171795
3.52962348511103
15.7617809082306
13.4309526853679
2.17776316668002
2.02057414224185
13.7560681517516
13.9444160429747
14.9598405381198
1.00388390138268
1.01157350139565
1.00083353612311
1.0002575970871
1.00009212622981
1.00021594333678
1.00017914019194
1.00009217711117
1.00009052639256
1.00022590157561
1.00034610968722
1.00008040475948
1.00000736033476
1.00030871897769
1.00009522205598
1.00003164600432
0.999942109690488
0.999941532548307
0.999937248313418
0.999918654495383
1.00008728604894
1.00040159437197
1.00360450338419
1.00134104511044
1.00060403546597
1.00095272349159
1.0086472166703
1.00494371632112
1.01970382435994
1.02872052807156
1.03843081298623
1.02898258348907
1.04788662918703
1.0546290764077
1.04674406029679
1.04089479390115
1.06532427111072
1.07179290317535
1.08220270609948
1.07150939824182
1.10402891691087
1.11612928602923
1.13750529740255
1.12277709453231
1.228684693583
1.27032634543727
1.2987709360119
1.25688682115884
1.2836760339117
1.32633160769853
1.35761650791719
1.31465804975335
1.52312263693658
1.63811690667732
1.66362447274429
1.5526725144013
1.88865247735742
2.20640828767142
2.20111861008816
1.9212424021831
2.11907146572756
2.34568582430502
5.47685696888696
4.99140356800576
4.96019991777697
5.43917413714512
5.89371661880108
5.56515456963068
14.9407283885419
13.3721236650425
15.3078612804997
17.2740108524968
28.6666277922388
22.3272756770032
93.6208445033065
113.255362811567
137.089718323176
105.479268425571
22.2093354502613
31.2990082686045
18.0809922068424
18.4200826093765
18.4334553067295
18.136718064971
30.7277179642809
22.6662590555536
111.622444139061
143.454742999983
121.122792231176
27.6985604178992
22.0325196980831
106.351721562594
96.0486543344492
21.6246551677192
22.0033488361912
97.0515034931248
94.0309133354226
20.5577824399618
20.6695523191079
91.2598692847386
87.049096569396
20.657087567375
17.5935018873135
84.4959055649175
77.1021345393146
16.5277519384118
18.264992682529
65.3916877487144
54.6500106779296
16.6767414907502
11.1555331410403
39.7623495462275
34.9479391036726
9.31573771048325
8.35167775916361
32.3667913477671
30.2548516542283
8.26459882600533
8.25388009675233
29.1212634370777
27.4230428384526
8.13453771553149
8.13001970571521
31.465744387994
40.5448246121376
8.69516188756662
8.36954951582896
37.4932194225888
40.9017000599532
8.3461817587427
6.83184202687444
36.6659157612472
36.0411507416982
6.78326356577197
6.77684246827699
35.8800874787114
36.4696008981641
6.81149530999396
6.89164883545758
37.5487798295796
34.3165361796516
7.62715803990709
9.92749512333156
33.4948954367097
28.0937928435256
6.47300683248064
6.34153916848467
27.2414719359399
23.3247385253954
6.29363248107666
4.77236510841858
18.8791719476897
17.6166132875179
3.72844832778431
3.22607915955172
15.6485549962028
13.4120558729884
1.77135807683746
1.41441180916358
12.5006163143526
12.8236216256091
13.6192669012586
1.00347105686258
1.00924358958302
1.00797585165359
1.00297310512473
13.6044794467627
12.8124970921398
12.4972942772436
1.42104902950273
2.02120441384056
13.7715747677205
13.9329138656783
14.9140124203593
1.00339061789719
1.01192326197326
1.00125205952612
1.00031764823009
1.00022729263491
1.0005360115488
1.00029891227554
1.00010939058161
1.00008576645833
1.00033682054421
1.0006032583832
1.00009425211711
1.00006954047177
1.00212442560553
1.01789985607479
1.00177107700722
1.00074993598226
1.00018470823255
1.00429405488744
1.01464803152409
1.03657183267574
1.01301348759855
1.2917166755728
1.37531852570079
1.07450323162766
1.04165405637729
1.09480364190535
1.13571692326702
1.16530097682723
1.12098763213706
1.16232483736427
1.2081137969263
1.07013162154337
1.05895659835538
1.08872324676696
1.10052737691038
1.08153592101334
1.0737596405739
1.10677034093169
1.11631749868502
1.10613996422615
1.09844721712836
1.11576362936201
1.12625863846058
1.13676744910478
1.1225399758387
1.14765215139576
1.16241103136062
1.16249433319643
1.14757897130194
1.17554609575818
1.19147605383474
1.22606846896448
1.20886717278646
1.24701323904197
1.26745513737913
1.39282215661281
1.34959617185782
1.38321562468636
1.4318045402077
1.68843722357695
1.58393525489088
1.6192215840775
1.71857764455314
2.20508980563378
1.95853911811734
2.27179057512734
2.39629830088271
5.53581249081319
5.13453316325352
5.81696649787524
5.92957180588203
8.64784070442438
8.52611864825939
8.59722227079732
8.63386669803414
16.4803631601777
16.2410918104105
15.7140172592541
15.2251147423132
21.5692293691883
98.3070846429884
110.433922810463
26.4286020337464
26.1764228701287
112.892442757866
98.3562538514185
21.4233194653521
20.4145913858764
93.2629097133514
92.14168740239
20.7242355600632
20.4138650346073
94.73515395606
94.1472718733801
20.6702288824692
17.4696947215252
73.9827980146194
71.8124722663453
17.3335779416557
17.1210124909423
58.7252887004758
50.1912463667709
15.0252429303255
14.3025356285511
44.1336647789124
34.9118442808236
10.2538216628205
8.48492976886312
31.5332623668866
33.8495128311175
8.25300996408164
8.18279173074035
33.028751129885
32.3938342896148
8.15737626214408
8.67109623551014
41.2778332539175
40.9342757074785
8.33362446375311
8.3440811680623
41.0485419685487
41.9803992375972
8.3867574351651
8.46323601995083
43.5360657089027
45.4932585031047
8.68349370013486
8.09944055581186
40.4503536093266
40.4161561397887
9.79225176227437
11.4732132765098
47.7749705864123
50.583297075759
11.5671943432947
10.6763666674979
39.6700692016437
29.8999522251892
7.20473974691261
6.11459558960225
24.6102921608502
21.995861091937
4.59379014251358
4.46619674224895
20.6590317096873
19.1421001969751
4.15003660165961
2.52968026779385
15.5314441670581
14.3688386001429
2.0756383850629
2.28248955936351
14.5219578071363
13.406000109567
1.76206519790179
3.21135324913383
15.6657203346723
16.272539923427
4.00748940605208
2.76518481539038
15.2036094753202
15.2732524385372
3.30452114366477
2.07517880593029
12.7257497694549
11.9335937499458
11.9846806040015
1.00186576996898
1.00781031385029
1.00207834551394
1.00041466542039
1.00145560103726
1.00839496303316
1.03932084407422
13.1930631382343
13.8435919471002
1.01381748847166
1.10447297425781
14.3406538578388
14.1245115213214
1.11384795687273
2.40040933137682
14.5973918095229
16.0448209097737
2.33212762317785
1.80920886339904
17.6605102866134
20.4609207384775
18.9785958417448
3.72595781142206
3.30442316785793
5.48067196061511
5.06282085996613
23.3117687354337
26.3736501246299
29.4749566649192
25.7990147968641
5.09879087017672
5.16671621043544
3.29684287464357
3.76700132756488
3.75921435597376
3.2889730837188
1.29615771353057
1.38422868485841
1.39486064544301
1.3026482837207
2.29234649385731
2.48258159855188
2.73177666084446
2.39338348780398
2.63065388890855
2.96336770268508
1.53093406212632
1.4308376388996
1.61573614774348
1.66344026738668
1.25966215893681
1.21716679264208
1.29706134920577
1.32803891061139
1.13506116468166
1.12187332176194
1.20856686958112
1.21687421646209
1.17154540605573
1.16025947307564
1.11517493815268
1.1262821556426
1.1609485099478
1.15094589630061
1.14361430505736
1.15439769827755
1.18912631033962
1.17777404524933
1.17824035335254
1.19381472410928
1.23211922091896
1.21554769052546
1.25808407019368
1.27800961528568
1.33322585845678
1.30231445077116
1.2851083300301
1.31649067533516
1.37077617076033
1.33022314798247
1.42104264482118
1.47594661880639
1.49306968425226
1.44034578049067
1.4705070728785
1.5229075566404
1.74214791947183
1.65250261734532
1.67082176492249
1.75598463809639
2.18788708464736
1.98302503588604
2.02763857929476
2.23443905531925
2.41756494979086
2.29230423518853
2.36137085237882
2.42215386102468
2.42240062284481
2.65185703185012
2.28577828698393
2.39772017173381
2.39686127264206
2.27100826331007
1.98120017270072
2.20661398384195
2.18402939899317
1.96263766058239
1.63913635001236
1.73004811923489
1.72344594313758
1.6322647710716
1.74098476989884
1.78367754597914
1.81068366756739
1.81102749664239
1.81655299571659
1.74540789067576
1.74051976939402
1.73764766680983
1.73232831903847
1.80460355974779
1.81521026136486
2.10049798443853
2.05941016175439
1.92757917838318
1.83655949675104
1.84867547583349
1.7949357228488
1.722722363392
4.2122929934319
19.6867964551382
17.5848514921368
2.87601226083772
2.65317381701128
16.6705252188196
17.7739386419426
3.16559500955126
3.10178322301076
16.2364920277735
20.8885562665798
5.54749540552675
4.08528588081741
17.9327532000843
20.2404804470132
5.34926442877475
3.98548053333633
19.406593668701
19.1073589467441
4.72769397023624
4.91648332531201
18.519690517622
20.3521064564545
5.42982847113773
8.31378671378059
26.0332259482619
27.3471613406526
8.93463277649551
7.5821518020431
27.5643541034098
29.8356757712994
8.18651532848406
6.67986138566432
5.91712408704024
29.3780087455127
29.6871672929886
26.8565926771478
5.42628865612733
5.19957197283472
27.8431810175065
35.6875785724942
35.1727179279301
7.88678908770608
8.58828593677265
3.67390822148865
3.14113719704883
4.40824307102318
5.056144232129
1.98745747126085
1.93314672345586
1.97198515355592
2.02620749571026
1.37606127207006
1.34241852310886
1.32109397606556
1.3549731827242
1.3598955951271
1.32508188947434
1.37350991830749
1.41063717765437
1.26239223808127
1.2433731274109
1.24666401412475
1.26041997531674
1.21097060068263
1.19514870165471
1.1913193236672
1.20848463703304
1.20034676555668
1.18861454162062
1.23553843405963
1.24823120154432
1.23191311126271
1.21931060244654
1.26790108302366
1.28382619267433
1.34599850678164
1.31747059935233
1.37476876121258
1.41459930609393
1.39256171443977
1.35233733310261
1.37560602107687
1.41410567995062
1.44714285929508
1.41066678078443
1.39266896155907
1.42637359525312
1.42036115304377
1.38433311051541
1.46803892808814
1.51811138586268
1.54851022084766
1.49779405458829
1.50399914202187
1.55537660360042
1.76550084310754
1.6778249950499
1.70490436272157
1.78512136777965
2.19889745271821
2.00928202395435
2.07313280235897
2.2670561896177
2.45141824189874
2.32491044600703
2.54819367480217
2.54522918964255
3.93024848296497
4.13419796901058
4.17679015381262
3.95567531533158
5.89932806963728
5.82222400699528
5.85174561220092
5.90043841188973
8.56327373335884
8.5825716116148
8.63688416328357
8.57847583375282
14.843827724083
15.5047384926093
15.4368483322823
14.765489488478
21.5093134690729
101.509073124623
117.394114119041
26.153129316544
26.2486743491514
123.423987754629
106.26263681739
21.7014597500382
20.3989456301281
102.063898686405
96.8941604696981
20.343900068395
20.6800207549626
104.006503886302
104.401524997407
20.789925069188
20.7288598343732
98.7664290638011
79.874164892352
19.7588712089537
20.6015024673643
71.3362967676846
63.2450654360682
17.3022825020955
10.5951739350963
7.54906702905619
6.20188316756099
5.76183782390598
13.1434014958235
43.3333180115181
36.2007954378742
9.47627481565285
8.85527437117003
44.5509389575991
42.8711144576969
8.66810048457043
8.65740466521825
41.7639527253513
7.60600457497236
5.38967430195709
5.57530785255784
2.52637214805853
2.64647633675337
4.16043365850774
5.10593039504579
9.62962752420467
40.3061324439387
42.4450483686831
11.0235047852496
10.278942106988
35.4948754152421
25.3378798062864
6.04171367690941
5.04780721155762
23.1098619023423
25.9291761095983
6.61908628738021
4.80094986415975
20.8877704720951
18.6576173196367
3.43434644346698
6.3645733468759
26.2697769557299
24.7672581433086
6.00455954432135
9.07334977011647
32.7478302198605
42.4669126888482
9.5564350864562
9.59191185481995
38.5014607648748
33.4325444867231
6.7575252971127
6.60977440548018
31.1274194942257
26.039640281979
7.07454854669028
7.55707987961475
25.4633082123756
23.7326692122576
6.13888082592031
7.9226100357653
28.6101780917651
32.216949577343
10.6040376805708
11.071325075454
35.1013112172411
35.4542877998684
10.3167894807857
11.8066592413604
44.9234179456391
43.2626940915237
44.1087306787296
9.26794055904844
10.1103979012578
12.4855042283079
12.5572194331443
56.6005050289393
51.0613579082337
54.212439091493
13.5930270062507
14.7623849571683
60.5146994222597
60.7836752943073
74.1748636518653
17.5490911531524
15.8474018195195
12.7074951863178
12.5910854895789
11.6144647316265
12.2247651741354
5.09547790453741
4.48850377345468
4.49816458122442
5.08732049501005
2.16557117043307
2.06930640099351
2.12860190657787
2.2198852998223
2.07369850574631
2.02642030233117
1.38077684357134
1.41363207663549
1.46354901072491
1.43059526147908
1.49326136731886
1.52868286649516
1.47197464417852
1.43442937172439
1.29973314484826
1.32015954408269
1.31674963673093
1.3014155721283
1.24636000090968
1.2637768873926
1.25797692925658
1.2391487458626
1.29490809219074
1.31825028963075
1.30578102700153
1.28955042404663
1.34589184467328
1.37482657886652
1.45235746612578
1.41039912858155
1.4429691825918
1.48231815664053
1.52809374662131
1.49021326672291
1.4557667384307
1.48712724193318
1.48293241981968
1.44887695825228
1.42487775987811
1.45951822430879
1.5015675130695
1.46709164773835
1.44817802999289
1.48443401452666
1.46317736212853
1.42882620778657
1.41797536970706
1.4526872210693
1.48505858177116
1.44933338421587
1.52499276892223
1.57717980894854
1.58752203559276
1.53474515838801
1.70035370737128
1.78856146543099
1.815676428062
1.73543865976621
2.02973565975886
2.21305921272591
2.30246391505843
2.11149460424277
2.35938696473247
2.49029707083238
2.57879317743064
2.59364170816907
2.6407483335558
2.61694818979783
4.52504951114993
4.73692422469741
4.69237908742394
4.45954958536178
4.75103505157302
4.9994462525774
4.92251104824866
4.64550610794147
5.93769250463673
5.90327440000729
5.971154721198
6.00770994166106
8.69496479902576
8.74645418043627
8.89307406664509
8.86090434634882
14.7797256336639
15.4482673211854
15.5172013680536
14.8435254855283
21.9560524131599
111.878826782701
130.389110481888
26.4152901337058
26.6508460294103
22.2747244813866
118.321999596068
138.485699676277
147.686271763075
26.937673700671
22.6597497833343
125.365456398183
121.436361725173
20.9004835694022
20.6689359966473
114.611822641561
108.104665173691
20.50443423915
21.965017703064
118.489550105253
117.858003505244
20.9475188828859
20.8444261841092
110.828268292474
107.585783795541
26.2180190468423
25.1096820465998
94.1817756247807
92.1550393746892
26.5642799077163
22.3468586577258
71.4830044570737
65.9403959055086
20.6957073328056
17.5065577521709
58.3819121401859
56.4698409059327
13.4934945389694
11.4877505661223
48.9820090994145
7.73016452349616
5.35676667596591
5.74366406579446
3.19044841921062
3.06358511920663
3.28789716710092
2.03368305194311
2.66694842295667
3.62015164635925
6.39374231563844
24.7254376556498
26.7270846559725
7.49091426331777
7.95978052203564
31.8115428088993
41.2825448575619
11.6921137456144
9.72319216285836
36.9611677291286
33.2209950005499
9.77988482883739
9.04580022102777
30.4646024418174
36.0813205484986
9.10812003213941
9.56291263120644
46.7347970212584
44.5087549927174
9.3413672766784
9.3780379160741
43.0994474384259
42.4703216380987
9.28611341895329
9.20796008798809
42.6347390922166
36.12006082087
6.7862344033284
8.26682529436061
40.1718806933269
40.1309499382825
8.23088375697702
8.23723520826624
36.783776209187
40.0310359534042
8.51308987702913
8.22880408527418
31.2174397553272
29.0415463082368
8.44082841365225
9.4911965767791
33.346890156602
41.4513373575739
13.9265141355595
14.6921268250678
46.0160219199878
54.4724054649845
13.8045741060196
15.9727138808403
60.4026685066848
66.5095963243372
16.2581239610512
16.1612184113289
67.7217563634987
61.7104434732454
14.6413553190335
15.6248303615301
16.9693034752245
81.7716391032794
63.9349836232456
61.762040764169
78.5274317458524
16.719630401445
15.5058606841731
11.0963832769309
10.9863185156208
4.76744810373657
5.35865153040153
5.14604816118035
4.64241144350128
2.19936322727193
2.28824171715993
2.12233156507682
2.07830388864574
2.13924013713909
2.18275065397074
2.25796250178866
2.21179788199148
1.56992359396454
1.61046541434863
1.54653354252241
1.50526546023299
1.36828575308795
1.3938941338434
1.38802449932141
1.367739510017
1.3075815331057
1.329419129052
1.41277302022432
1.37715733446648
1.35621337720775
1.3923243870182
1.48538693169722
1.43379704845283
1.47735648685299
1.52771534618456
1.59578925144075
1.55369873171612
1.51447383630298
1.54383340643269
1.61732111231377
1.5864596604203
1.55177566147057
1.59465949823758
1.53604644648279
1.50529226509647
1.49371135679336
1.5303178208942
1.57988485548725
1.54021867092583
1.5072086049898
1.54348868599281
1.52161188832753
1.48345426866551
1.46154385513773
1.49815450044992
1.53086175651296
1.49159691477185
1.4785309389133
1.51653056462321
1.60377002242328
1.55010082313326
1.56332882959813
1.61937643095209
1.81087483349801
1.72119345530352
1.76370481467074
1.84623972909839
2.22875545345791
2.04835323566052
2.14757779951772
2.33903584218985
2.53354642452217
2.39579622397055
2.43334612721351
2.57700424094635
2.65470534442323
2.6828995291913
2.72833325739393
2.69482465098001
2.73465480004871
2.77133842091434
2.81953892919122
2.77765252519027
4.87166166782213
5.15923226066609
5.0784947654133
4.76410863573521
4.97836330068713
5.29100899075339
5.20978375582075
4.8730122256624
6.10219514080962
6.04325535170043
6.10847695428427
6.21154272735092
9.05804601682555
9.06913588638298
9.26646213199138
9.28924833564825
14.9546274139977
15.639991380778
15.8134035017436
15.1183065140102
15.3339837732189
16.0316127699239
27.2777629510139
158.155968077996
133.049685733351
23.1089321730774
21.1765892243582
128.535437722665
145.007596618581
22.5069550749561
21.6343180801332
141.313299396238
132.793286565599
21.2922042569636
21.0943457478812
125.007180217144
120.580529730137
25.2058889072015
25.6646837256769
113.829380499109
138.606148287747
30.7005581631286
31.7283583209433
130.21460024105
132.070249619627
32.1403134711064
32.4332237010286
118.998891995605
133.115876284319
31.540473707703
28.4163072052899
25.0326025270225
27.0304914267406
109.660244879604
104.817123321394
26.9090416543445
26.3631384704671
97.4921890584869
94.2017753405628
24.8804687412654
24.4648047908449
97.2571149605954
101.720225826234
24.6233779127748
17.9260286775815
71.4819428653788
62.3288444050083
13.8223223636217
9.46764239157251
50.5707846395941
47.879018968915
9.02587586223473
8.35219481397299
43.4617456243164
51.699255419335
10.7741007675045
10.719964815677
52.9116823246605
50.7320354860312
11.4939528622665
11.7723596396901
52.6278731552681
55.1853507784083
11.9368371773265
11.0676570438446
47.3704576144155
56.0697701933218
16.3638782021997
13.924671486815
48.2742682556292
39.0799156574879
11.6217886914724
8.50269320071716
32.0235549709762
29.0207746598342
7.81732286924228
7.02497999071916
27.6786414824689
29.2249137650171
7.84878540696837
8.1955416251453
34.2614983275525
46.4278796508845
11.946106143843
18.1305612797186
66.3085840344821
54.2808330179186
15.8661000200579
12.7239008902957
47.1389978426869
41.2209808392543
11.7227532987932
11.5142121874206
44.1654286689809
51.661198594298
10.1399435303952
9.79068150366208
49.0315603227811
48.9219013041171
9.99783281443866
8.02321848885254
39.8172399043577
44.5507088234925
9.7690125514275
9.1207615468143
42.6501906418239
41.067927954643
8.66166261442323
8.39194380305014
40.1715507924534
40.896509031381
8.68023236035557
8.48129257336695
32.7582043001665
32.0186527412768
8.73248862766812
9.9897225263967
38.1421297635126
52.3275414732353
14.0791562672732
15.4376158945624
66.9661959299425
69.0923240475351
16.2382642179777
14.4744399602805
61.2385577899596
61.6818192354953
14.49473849964
15.5932888382547
16.7211429371655
77.8321662614696
61.1117878378983
61.644987494274
78.829219558336
17.0182581230486
15.9669362826352
11.4419700539849
11.1653572247387
5.17991798651958
5.78118330824509
5.25086111765002
4.79265941650141
2.3966718754287
2.4854791738218
2.62786853895395
2.51849177832533
2.2928411908206
2.35961119517397
1.71683060097416
1.65549578696681
1.58374421251106
1.64231142945939
1.49084099352965
1.44758884973524
1.44539020395304
1.48183837594466
1.61657546997621
1.55545129293027
1.47336391002239
1.52841293629534
1.57538749014973
1.53697294459254
1.64445861066127
1.66764393513857
1.59702698273151
1.57582817332825
1.69342000183723
1.71628896479054
1.70871830055269
1.65485837657605
1.79544196305204
1.85845512012426
1.71621155736501
1.68307901951458
1.62741150162763
1.67389011519071
1.59322039961761
1.56165609222589
1.63217883058185
1.66476472745281
1.63550211066093
1.59271452919238
1.54826025181111
1.58661111096277
1.55873753299729
1.51734391112353
1.55224717094973
1.59779565685461
1.56255553945025
1.52083674355106
1.50604087650778
1.54651823689869
1.62831031352429
1.57347579761947
1.59079430331905
1.65025533687339
1.83287503661179
1.7416616217993
1.79129939780864
1.87680992031655
2.2457879720198
2.06756178678955
2.1839237909844
2.37573699536016
2.41166133942653
2.21968938535065
2.47235568338486
2.62294224001992
2.66777928611226
2.5114026868947
2.55114878910355
2.71178433599819
2.75278494367427
2.58963767103411
2.86626698132547
2.81962885014724
2.86413904043236
2.91798850354295
2.96730482522258
2.9062310177127
2.94985549816862
3.02034840449631
5.40574780625909
5.08001918570265
4.97186456260311
5.32251879325545
5.50175451830138
5.17150470828658
5.05364943466897
5.41439273848924
6.16803933771723
6.32924993640921
6.44787032226186
6.22248657273193
9.47544260915149
9.54917500305353
9.82724825467816
9.68179108955283
9.86488361384311
10.1049496656631
15.5946429773011
16.2857850980681
27.6828017080651
170.060307974522
141.532480432229
23.6069564952192
21.5003936447363
136.054257771365
155.140865389837
22.7810080519172
22.1740151241774
150.496365463712
149.597228877417
26.8519105773547
25.4841306794527
137.554203032323
128.396602767308
25.1382555495472
30.8960773215931
157.098109913466
143.111656795842
31.6748278134933
31.5675427869512
134.225331617893
102.879595804911
27.2738163129429
27.0570190449621
102.863486754842
96.1061721367117
26.0455867692508
26.2892637755099
104.331120140246
101.961998195225
24.9608962978377
24.5944899900041
107.502392916932
103.610816768754
24.4477025579902
22.2250357918452
99.3042099462388
99.2615005136369
22.328876245448
18.6019624306184
74.5467192537222
66.3280624363882
14.5037506444177
10.0560225777898
53.2637764820587
47.1162825580107
9.07233047613438
8.65591082719039
44.95691090718
6.22285320793873
9.53206004893269
9.50441643770686
11.1268785765859
55.3029919128797
58.8167118359738
12.1143963070602
17.4096812249512
68.3316137819314
63.7818415565789
15.9345156231901
25.3681463254564
88.3428893989536
78.1530758203125
23.4709280183648
18.0496758048403
58.5793686682599
45.8377707860653
14.3834866658544
10.0534435699142
35.459046031919
30.522001778967
7.9155933985006
7.25296021317621
29.1257428020226
30.4245198005607
7.97338529601027
8.41076224891876
35.6326438882832
48.7960550264559
12.0532101840011
18.7374369597281
71.8894232624535
91.4250340338155
24.4681046612332
25.8282277717268
119.807983521433
114.076772327859
25.2051098499167
25.4797426589863
110.634744031055
101.300309293525
25.0596206814696
22.8840301482495
81.8905418487646
59.6743549131399
14.4118714755179
15.271660366581
60.5996718592102
52.9327625742519
13.5808331919957
15.3301487380678
57.2600786358911
48.3287636534823
11.4619604880133
11.8060871497302
48.8831259992603
38.5781040810352
13.4603602221662
14.5356673328952
37.2995910463182
44.4337939814234
17.2054900795819
22.0938262329963
64.6765975879059
84.2360174340157
22.131408580141
24.8338352940921
91.1208224129724
83.3941771633685
24.3581920281492
29.6923156490875
33.5761535746761
133.306723331728
92.1614023150464
88.7911423118183
126.649303848164
29.9550120754305
26.897336384631
18.0095969834621
17.9033696227101
13.5914063685582
13.1364963509183
8.71913301211736
8.47633068678247
7.82900634733726
8.30875998902155
6.98536115839428
6.55818064644264
5.33506514869953
5.6755654167301
3.92595882893878
3.79681055896785
3.66390300435697
3.77185344476244
3.54282105837897
3.44406122559135
3.21791200519727
3.30525198439993
3.07974574928422
2.97598296554829
3.04334705764227
3.12525918807075
3.2554794690104
3.14528607152785
3.22970534584959
3.33282904329011
3.46755355041557
3.31530357340277
3.3459810682941
3.46811261507577
3.53580241178788
3.36175626024427
3.27677750669553
3.40714754603218
3.11915760639288
2.99310590713538
2.82680898302227
2.94234788654945
2.51984047021424
2.47126771616766
2.262493725147
2.35402134424493
2.04711616795846
2.00311767180812
1.85873817776494
1.91309131677571
1.75918934329796
1.72481353291345
1.65812674637195
1.70352443232267