/*--------------------------------*- C++ -*----------------------------------*\
| =========                 |                                                 |
| \\      /  F ield         | OpenFOAM: The Open Source CFD Toolbox           |
|  \\    /   O peration     | Version:  2312                                  |
|   \\  /    A nd           | Website:  www.openfoam.com                      |
|    \\/     M anipulation  |                                                 |
\*---------------------------------------------------------------------------*/
FoamFile
{
    version     2.0;
    format      ascii;
    arch        "LSB;label=32;scalar=64";
    class       volScalarField;
    location    "2000";
    object      p;
}
// * * * * * * * * * * * * * * * * * * * * * * * * * * * * * * * * * * * * * //

dimensions      [0 2 -2 0 0 0 0];

internalField   nonuniform List<scalar> 
207032
(
83523.6775755155
83537.3032237371
83558.9124134868
83536.3091534395
83522.8498768773
83512.9521417568
83500.9997934005
83492.2033398238
83496.1535062197
83507.6246481519
83507.6978865231
83504.0179729574
83504.2832476357
83512.5456397292
83512.0973742096
83520.3353188584
83521.8508389409
83520.8360446467
83521.1551852725
83531.4213186295
83539.7480405724
83544.2223355411
83531.3827542165
83522.9152871183
83523.1465440549
83530.3355905178
83529.6608380587
83531.7947987296
83537.3913648535
83536.7546200832
83532.2055241431
83533.0584590972
83534.5568489727
83533.3034748594
83531.8858721553
83530.0602279712
83536.5238628861
83545.6586971693
83533.136189942
83533.1072752534
83546.1973195743
83530.8980641706
83528.3995970558
83533.0382015503
83548.002662035
83490.0371095015
83502.5800611466
83488.7899106831
83465.8768878683
83471.1532585519
83486.1566881299
83484.3156058036
83459.5330318874
83555.6047839138
83554.4482436095
83517.7497015896
83509.9897368571
83502.6061416024
83502.6171138987
83503.1538982081
83502.5835908524
83501.6353268335
83503.2159695173
83497.3004827397
83497.0740840993
83491.6502154572
83490.1782336123
83472.2593777265
83488.8373836937
83507.7629941132
83501.9087904294
83523.1023613473
83563.3817760347
83547.5104522953
83526.7466502867
83510.0702559862
83513.9503401937
83488.8255503396
83478.6734977583
83484.6034499814
83491.2969451968
83495.8689487594
83494.7148411805
83495.4765864136
83497.0546192737
83497.1302913361
83496.73798267
83498.0680359402
83497.9105913623
83499.8254202148
83500.0635138284
83498.3954077525
83498.8994385813
83501.9995229671
83502.1879639022
83508.9451452915
83507.9177947881
83516.3454157241
83515.9318276621
83524.5507839646
83525.5828496091
83533.534892797
83532.7408673829
83540.6477580096
83541.1220123442
83535.6307278991
83535.0318841704
83541.2628880531
83541.7672776371
83536.7568763187
83535.9348901396
83533.6601316031
83536.6430585456
83535.4305752867
83533.3094304637
83523.3883902161
83532.7881504201
83533.1559992089
83537.1279046634
83552.8027972425
83536.3083261973
83537.2795644654
83547.1419740957
83544.4205104867
83539.5397817401
83539.3277796259
83541.446966754
83538.6713385692
83538.3641285017
83537.3568659778
83536.7303613143
83535.9826979459
83535.7254503237
83532.2032963841
83530.9126887338
83529.552355365
83528.4287102822
83527.0754355801
83528.4066086768
83529.0897572918
83526.9133327747
83524.3553452582
83531.4397041269
83515.2386947916
83519.4388865231
83518.3402791552
83508.0332550226
83548.7663731851
83512.9988217901
83505.9857878065
83501.9949535363
83499.0616628141
83496.9975216625
83490.6975122724
83488.6877494404
83477.4640573843
83487.4852529356
83499.5830016847
83507.0349495163
83524.5307131905
83503.6802851703
83494.8515008759
83510.370887773
83498.9375904192
83495.5286000388
83496.9325070483
83498.0675187755
83501.2320995581
83499.4400004769
83492.9120100235
83490.7301833312
83492.9190323903
83492.4433204512
83492.890456366
83491.3364678064
83492.3427457434
83492.8766896526
83495.1410850148
83503.0812832384
83490.3234668017
83488.7846108558
83498.3360298092
83492.8145558664
83490.6147110935
83491.1588636745
83491.7933255217
83493.2738442051
83492.9393520065
83495.277970824
83495.4859644904
83497.6258951385
83497.7136586897
83498.2870169369
83498.2111673035
83498.6317478071
83498.5500772483
83496.2149684314
83496.3949721911
83496.5302404104
83496.3568252578
83496.5146506299
83496.6898730783
83496.8022168935
83496.6771616033
83496.7073695351
83497.0685587833
83498.2968390384
83498.1124517186
83503.2898284667
83503.1471393351
83511.1209631028
83511.8574793868
83518.1815540457
83518.4222227823
83517.1636886437
83516.8488290613
83525.0373075913
83525.6108794906
83535.2218628414
83534.6251127685
83541.6540193467
83541.9416899006
83549.7309752604
83549.1910929852
83554.1942633161
83554.7713053868
83549.8522677461
83549.1324261513
83552.485155417
83553.7071597789
83549.596048699
83548.5533343866
83543.2213270366
83543.0840564524
83541.2951831537
83541.847679726
83541.4920231256
83541.0218655048
83543.8468948351
83543.7926442004
83538.734258121
83535.3317034131
83538.7901850018
83539.8325249781
83542.5902092161
83541.2078729914
83538.3093673414
83541.4876021668
83538.874719037
83538.7128878982
83530.8936567773
83537.2109317281
83542.1119011728
83538.9515581616
83530.8908828748
83518.3465008813
83504.6103321704
83489.2859388227
83481.6183320917
83473.4092491519
83476.77632195
83472.0932965062
83479.5631262081
83491.9681458944
83506.3652964595
83502.3563642384
83493.1492844918
83496.7790378227
83493.6371649974
83505.5788951841
83503.0630240938
83497.3846090598
83484.4789643323
83488.8695941693
83494.2703706237
83492.8093716979
83491.016138768
83491.4244867367
83492.1773450337
83491.9770183321
83492.3945716511
83491.4026681265
83491.6211654612
83490.4077105217
83490.8750329934
83484.0529919889
83491.6865800598
83489.50217494
83487.7380339638
83489.8143199441
83490.2821801916
83489.1821697716
83489.1644198049
83491.1474169555
83491.1823145318
83493.2829225551
83493.3461025655
83495.3936492434
83495.182450295
83493.1911910371
83493.3456658771
83494.4847457046
83494.6987576768
83494.5301582547
83494.3377813904
83493.201349985
83493.245681642
83492.9781480936
83492.8635427928
83491.454735304
83491.7463283584
83494.9797233255
83494.7651878091
83496.4043505892
83496.6332635597
83501.3304813541
83501.4877190121
83511.1170574944
83510.1890038719
83518.067177333
83517.8361896193
83518.6531001259
83518.891227118
83529.4055080055
83529.0542014393
83527.5206602208
83527.874601319
83539.3489253737
83538.8110403232
83548.6923319855
83549.3372412123
83546.1293214457
83545.4907113513
83553.4825095267
83553.8263318511
83561.2589581816
83561.013794232
83568.9306859206
83569.109761796
83562.5352511928
83561.9416778408
83567.3506776096
83567.751581594
83560.4815874888
83559.8133293599
83564.6437852763
83564.5504479559
83557.2730430998
83557.3765987687
83550.9219066778
83551.3731481341
83546.3409457958
83545.7846856358
83548.2953424877
83548.6496575053
83545.7832577881
83545.4496239123
83546.7012669191
83546.7544840244
83544.269170627
83543.7346211953
83541.5621322457
83543.592471442
83545.393904849
83554.1767751311
83544.7146592965
83543.3790973851
83544.7351916895
83543.5737693577
83543.8126324237
83544.9445891011
83540.3388352124
83538.1249137428
83529.2657814846
83537.6862755378
83542.6711428537
83542.9971167929
83542.0631594684
83542.3688563289
83545.4886221639
83541.5075315391
83537.4876814066
83532.7199035744
83535.1329914903
83536.3378655326
83533.2980879521
83531.2555911472
83533.4718139723
83536.9179020447
83539.9714629389
83540.4964828148
83530.349661495
83540.0411726663
83534.1277954423
83530.6778299682
83531.127028397
83529.7555498013
83519.5346985791
83520.0800885369
83521.9645705654
83521.0836863673
83522.9170576929
83526.6186126451
83519.5825125667
83516.6185475665
83520.9443520001
83526.7997557722
83514.1953416553
83517.0483694646
83515.8951364426
83521.5513118128
83523.7713500748
83515.0209326213
83514.8828012264
83529.6482511666
83515.2388685656
83509.3883160054
83504.5181670555
83513.4418213416
83503.0527632371
83496.9822434799
83485.5106889876
83482.9362649767
83480.2831096979
83479.8938500662
83467.3335360542
83463.2764658983
83442.7028532228
83456.1580724636
83438.5384033355
83432.4642176642
83468.4300310275
83468.5449172421
83480.945101451
83475.6007932198
83493.123136075
83489.8039819979
83491.2720871026
83492.3227503536
83488.8768855724
83488.4312268118
83490.9113275444
83491.9156768362
83489.0666586931
83488.8999836932
83488.7643172529
83488.4670565416
83484.4252481541
83488.2613215341
83487.5005703289
83486.9413709885
83485.0350550484
83485.365744426
83484.9726084969
83481.6592927439
83487.2229618265
83487.372503251
83486.2309261126
83486.8547891165
83477.2507617823
83482.3512290015
83483.2282962076
83482.4299858609
83485.3199577602
83485.5207366537
83487.2393087819
83487.1821649325
83488.9984867786
83489.0501765763
83491.1692212223
83491.1980735138
83488.7136711245
83489.0594996348
83491.876821133
83491.6734557509
83493.0276793512
83493.3969048107
83494.4172013274
83493.7071927196
83493.0088525196
83494.3950676327
83488.9540584194
83489.1971892305
83488.3196676555
83486.6420830299
83491.5248498193
83492.1010954038
83495.9679885612
83496.2283612962
83506.2374178342
83505.6907466823
83511.7541736091
83511.4075609412
83515.6673719135
83515.9033318873
83526.2281984724
83525.7160985079
83528.3434050422
83528.7728512433
83543.0171618138
83542.6030277188
83542.4452985864
83543.0196166285
83556.7562973829
83556.2465500508
83553.4589548856
83554.0618699423
83564.3636849352
83564.0106845895
83558.7904367573
83559.0972232836
83568.4143205796
83568.2147700335
83577.5238284865
83577.6117045178
83587.215138854
83587.2934807855
83576.6294786576
83576.6459908656
83584.3119828036
83584.5505714539
83574.0221489461
83573.7134849299
83579.5731638668
83579.9119850473
83569.2031072873
83568.7045198766
83560.8037565716
83561.1299332913
83553.8445147486
83553.7906418043
83555.8195863687
83555.9275319223
83549.1459469713
83549.478411755
83548.9349446395
83549.1566507351
83545.7194601531
83545.8618474051
83546.970136912
83546.2911730967
83544.4544189449
83545.8959744431
83545.1747863148
83545.1937284682
83544.5903850675
83543.8624968914
83542.8975204668
83543.3369914244
83540.8451794212
83541.3624124176
83546.3351100358
83543.0980007909
83540.405215954
83543.3982152977
83540.5268970297
83537.3750036977
83531.1742244196
83533.5306949347
83523.1749346961
83529.5790237763
83523.5491017054
83519.9813122504
83515.0284387583
83514.6371950217
83502.3220226561
83503.006147432
83509.7261367239
83508.8728980189
83512.2840056808
83512.9652820084
83504.7494816305
83503.872756323
83509.0913034544
83511.6307600689
83518.3611646405
83514.3762847122
83505.1296076871
83505.2539291317
83502.9963940965
83500.2530670245
83492.9460239449
83492.9773518519
83487.601865807
83487.5943675258
83478.1327464108
83477.1374381326
83466.8433182024
83466.6523877384
83454.8581992875
83457.2970763512
83450.3589356889
83447.2209109394
83429.2682958646
83425.4944921333
83429.349762788
83420.7490368466
83407.5748020894
83408.5680048091
83384.8416163486
83385.5474158288
83428.7132878529
83428.428419667
83458.593082945
83459.7111238796
83474.2625494412
83471.8497075858
83482.7347013597
83483.2867088597
83480.1259251868
83478.819092801
83485.4409000461
83485.8183016004
83483.6473220158
83483.1639891119
83487.9702962392
83487.3206548173
83486.1160530455
83487.2802790954
83483.719538795
83484.4370891428
83483.3588995707
83480.5745136956
83479.7623675256
83483.0080845753
83482.9507048096
83481.2495219076
83481.0889376818
83490.5204505356
83486.722925878
83484.6830267114
83487.6505715531
83488.6239115749
83490.8160840175
83489.0924298983
83487.2414860337
83488.0431325325
83502.4986006485
83492.9193876301
83504.1721326947
83533.2847542448
83538.6194575042
83497.8345602293
83473.8071435941
83447.5801041922
83460.9874032202
83478.3911334339
83482.1785005992
83478.7387800673
83475.4756001503
83468.7496994596
83479.6942941808
83482.9793815363
83484.8978011186
83481.0667783799
83463.9544577679
83476.9356299142
83476.7734703173
83461.3188487025
83485.9281448911
83486.8197371495
83488.33681555
83487.1577912918
83485.8534716344
83487.7458168069
83488.6953721616
83486.1004961313
83490.1022211829
83491.0330637652
83490.5999945161
83490.3632111459
83494.1662559784
83494.4979528499
83501.0666119462
83500.1752828669
83507.0312833193
83507.5458942827
83516.0243663407
83515.0469733952
83519.9181120359
83520.6738377905
83532.0498471864
83531.2929170974
83539.5187831788
83539.8966492492
83560.6537373259
83560.7644515136
83564.8011069821
83564.7769406826
83558.9138808247
83558.5921230433
83571.5423115671
83572.1044459039
83568.6061609437
83568.3027149479
83580.9847938797
83581.0896434262
83575.0828468851
83574.87175047
83586.2999405018
83586.3085171483
83598.1592510638
83598.5268811075
83611.1329433558
83610.3491254234
83596.9433531857
83597.3367470811
83606.6013478437
83606.3254150818
83591.5160598038
83591.7090968536
83592.3320392784
83591.8308763104
83593.6766974108
83593.7601684829
83587.0422065373
83587.0807936173
83580.8904306187
83580.9558681189
83575.2279994024
83575.2191624111
83570.3831033208
83570.4683721243
83566.5350031249
83566.445966957
83562.7412110018
83562.8120885707
83559.7574496916
83559.4716778408
83559.8720066975
83560.5428874161
83566.8586931726
83566.3200852258
83569.1844937631
83569.7774090951
83575.6083121731
83575.0987606933
83579.6124554511
83580.1625155393
83587.6342985999
83587.3510997759
83587.3607587522
83584.3654512502
83591.1389493777
83591.4459502928
83589.6966363706
83588.759077711
83588.15941636
83586.8785460267
83582.3436223447
83570.1375294393
83556.6115262377
83532.4111542443
83522.343923081
83494.459694498
83463.5714136496
83449.693349447
83428.3217375648
83422.0853671259
83413.9827011335
83414.1272616327
83448.6533302249
83450.9984085881
83470.1309064109
83467.5460360556
83463.4049547318
83465.8083448536
83477.1376789968
83475.74731751
83474.9651100381
83475.5187143943
83481.8368914397
83481.7347716711
83481.28920257
83480.8894507971
83481.3522641669
83476.4371340224
83475.5478609051
83481.9349539769
83484.2715296051
83485.2438102659
83451.7875977213
83476.5474692599
83488.9489753715
83474.0613880914
83462.662908056
83491.8580371001
83498.8198720709
83483.8591613722
83521.1111368048
83507.2626319987
83504.9239141288
83506.558359102
83505.1481621368
83505.759734775
83476.6980969918
83494.0652704969
83494.8545273247
83483.630880553
83528.8661014091
83523.088066403
83515.023744218
83514.5038334022
83508.6359563827
83509.3437090054
83513.3230210649
83512.4495939984
83523.3305411092
83523.9269786818
83533.5475396048
83533.3204142174
83539.1728205948
83539.383519564
83548.4614524808
83548.0636773032
83557.4805506533
83557.5463512008
83570.5682762531
83570.7867477558
83581.5368383279
83581.4418166199
83588.1220881376
83588.0600119488
83589.9887417399
83590.2545471366
83590.4878292753
83589.984847526
83585.7423262707
83586.0324107094
83602.4282729173
83602.5488800283
83595.1941210298
83595.0245615106
83609.7855457673
83610.3782553135
83626.0027279864
83624.89641041
83639.7391484907
83640.2774421836
83622.5077664818
83622.1277257544
83623.111858285
83623.4893007066
83626.2604588117
83626.2616930549
83616.7372569335
83616.6854640347
83608.7620371477
83608.7515702918
83600.2692529703
83600.2653158184
83602.366315403
83602.3814689692
83595.9142301065
83595.9535696141
83588.1550664221
83588.3059055917
83582.4720766787
83582.4562470181
83576.0606152193
83576.2632026358
83571.6160735522
83571.542125875
83567.0197233161
83567.1723766361
83563.715632492
83563.7519952596
83561.5639550778
83561.0738171328
83559.9668621101
83560.4157737733
83554.8397463358
83554.6703268338
83554.8433172143
83554.7939943414
83550.0169548634
83550.3428846374
83550.9575863107
83550.6438309264
83546.3655180424
83547.1621610809
83545.9840699932
83545.1439910874
83541.6379027254
83540.3667942334
83541.9965557035
83543.045565387
83541.7913200815
83540.7857844977
83539.2526751395
83540.5084517154
83537.6766419486
83536.8396379219
83537.9020853395
83538.6024644017
83534.6294939251
83533.8475353076
83529.8325783009
83530.5801166086
83533.2675896846
83533.6593076046
83524.9005117042
83526.6466018657
83517.6352755107
83508.9677942223
83525.4200726517
83524.0872197592
83528.6998568439
83522.1559486348
83506.5336154213
83491.1811570885
83490.4790445027
83490.6692978235
83499.8676768034
83498.6701524134
83486.7535836827
83486.911185098
83494.9485437508
83494.426920928
83499.5180462981
83499.9465562869
83499.5348293246
83496.1740055859
83489.2841734185
83485.6993255638
83457.0954513951
83439.0933712243
83393.285726846
83390.9974726845
83402.6355009573
83356.8757327072
83354.1700598509
83332.1497157992
83328.2935311598
83324.6408446318
83329.3522560109
83361.1277502328
83356.1747878275
83338.8056155017
83343.0978661247
83400.7121565479
83401.9054491512
83440.5717099339
83441.9474754742
83433.1231421827
83431.1828528118
83466.7974469003
83465.1345791355
83470.6176422198
83470.0409915324
83487.2471710055
83475.1725854508
83476.0971488579
83477.3070987153
83487.801731272
83480.0099260081
83482.8869145511
83483.9279482425
83467.0481372874
83481.0654008602
83487.451809567
83481.9931244941
83526.5107967113
83496.5734259441
83500.4697249201
83493.2434996425
83532.5622737374
83517.3180620117
83523.7646096549
83550.3603766316
83544.5230450495
83520.1038156686
83512.6710894075
83524.7808668365
83516.2524911302
83516.0399857959
83512.1940068525
83511.7507915297
83505.9255581631
83506.7259428369
83506.5064674989
83505.1456636736
83507.603171754
83504.2420741585
83500.1619348728
83501.8320880133
83503.4722695096
83503.6826783996
83502.8016249381
83502.4523432082
83503.4146029301
83504.2832433298
83506.755758823
83505.6683904378
83507.7637446373
83508.5574078777
83518.5380741893
83517.9592449056
83525.5938098475
83526.097473703
83528.9201175419
83528.7092860744
83538.5154266965
83538.6674142691
83548.67480534
83548.6720307684
83558.8598653012
83558.5579158475
83569.2889763292
83569.9084920698
83585.4710828177
83584.8774190011
83599.5354411615
83599.8621266532
83607.845130289
83607.7397409739
83610.7251823239
83610.7002222845
83609.3360277152
83609.4225984198
83628.5726815734
83629.83585307
83620.6009864233
83619.6226684294
83637.6222839788
83639.3909790108
83656.6048581296
83655.566980533
83660.0039442181
83660.5741998291
83665.2428840257
83665.2473924484
83654.3020135461
83654.2383604365
83645.2382876561
83645.214658142
83634.490826343
83634.3571742875
83637.0805113642
83636.9221020526
83629.0390363441
83629.2961242073
83618.7282369851
83618.6684411391
83611.3031263398
83611.408562146
83611.8036518203
83611.6650222999
83603.2716684053
83603.2238096545
83596.6531318449
83596.6641836585
83589.3877067372
83589.2723295462
83583.3993029598
83583.4287350576
83577.3330500628
83577.1682722994
83572.2652326667
83572.3804512746
83567.7292468833
83567.5398453638
83563.7099023787
83563.5265351937
83563.7824648964
83563.8495897021
83561.0518645567
83560.6907760467
83559.9847546641
83560.1306037587
83560.8529146203
83560.5692483806
83559.7620224823
83559.8407378345
83554.9527485048
83554.9662575816
83553.9033139678
83553.9720234318
83549.6021583984
83549.9404187836
83548.4750666046
83548.1825331521
83543.7844509651
83544.5715846407
83543.0358171239
83542.2733906138
83539.2714305339
83538.2400024791
83539.582156712
83540.474466352
83538.3920497706
83537.1631244219
83536.2964611627
83537.5839669177
83534.5209529609
83535.3258449002
83534.0262683287
83533.1659746476
83530.8384591523
83531.1159239269
83534.4255443007
83534.1965169113
83536.1723855994
83536.6279767561
83532.9482427525
83533.0030417061
83531.4082395214
83530.6537350958
83530.8678244788
83530.4357950209
83525.1745216588
83525.5808165768
83525.2860943033
83524.1304690109
83518.1002407236
83520.470218463
83506.5489667813
83495.4906004548
83488.4701434826
83494.219327004
83479.5543245823
83478.6557072344
83462.3914732578
83462.7698756377
83476.4829515309
83476.8057664257
83474.1681533253
83467.8163911377
83453.7955369322
83445.8897097351
83440.4813974308
83411.2265518077
83390.2684461666
83358.5767591823
83308.7320337823
83318.6550931808
83326.3954877929
83321.7466095488
83312.468893017
83302.0346663946
83303.5259917879
83288.0769117274
83292.4319961494
83312.846315096
83315.106074806
83348.5286117581
83342.0375781314
83380.6039099943
83375.1230241446
83382.861855735
83388.9651080751
83386.352067433
83383.0426613979
83417.2568727084
83416.0861861497
83435.3357558969
83431.4894402874
83461.4159040076
83458.5398694797
83458.195519563
83460.2101094626
83465.6569006894
83461.7402646899
83463.107415698
83465.0141486355
83485.1375791498
83479.8789713218
83488.468458085
83499.0000725222
83492.4136922198
83485.5399326575
83487.4313111916
83489.9382230681
83487.3492725268
83490.7956655563
83494.8052968486
83490.9817527991
83513.712108829
83505.3615498439
83513.8245652735
83531.9256340354
83507.8761635522
83504.8261096341
83500.2728753085
83509.5634238038
83502.1136257941
83497.6845727886
83490.2559438361
83488.1369102711
83495.0610263182
83494.2994521384
83497.5128942809
83498.3922738283
83497.8980390529
83497.3694461083
83489.8300744772
83490.8969051106
83493.2030921575
83492.0379128425
83499.0436764591
83499.9724839696
83508.0757498705
83507.5733824564
83518.3525273741
83518.9265823395
83531.7222375577
83531.5872690633
83544.7363809808
83544.7479089387
83551.2210886139
83551.3538269726
83557.4314544887
83556.9727172678
83580.3105146372
83581.4429666103
83601.4009736909
83599.9111664123
83618.0386988554
83619.7541874725
83629.4888850028
83627.7795633215
83631.1228406583
83632.6444146276
83655.3713697573
83652.5453696427
83648.6083346464
83650.9462072453
83670.4094930456
83668.8242371513
83674.9975719053
83675.7482373828
83681.3177651946
83681.2354317753
83672.0959716009
83672.0138847402
83674.4076779439
83673.6070708612
83667.935113388
83668.7481020613
83656.6287326439
83656.2523086669
83648.3486865979
83648.8119063332
83648.0505070463
83647.3570782165
83636.6951723082
83637.1075316664
83629.1740962652
83628.8095668272
83619.1284045811
83619.276513825
83617.3898106967
83617.1987001196
83610.0571335863
83610.2594236187
83602.5389259873
83602.520325401
83596.0716916128
83596.1286612312
83589.458922432
83589.4687796645
83583.5460238938
83583.5900302469
83577.7716501027
83577.8083993644
83572.6373341539
83572.6116200812
83567.74624639
83567.9613488263
83567.9083677227
83567.740270622
83563.7234832766
83563.5866725367
83563.6112394083
83563.6343048064
83563.2108673027
83563.1046302863
83562.7911209782
83562.7960872867
83560.1781624998
83559.8886640021
83558.7569765806
83558.8100538853
83558.8403465865
83558.5430306095
83557.2769420253
83557.3219260543
83552.5832045001
83552.4452616097
83550.7561165847
83550.8940739059
83546.583887553
83546.8836743611
83544.8249583453
83544.5635584327
83540.2103501831
83540.9236278404
83538.0037231853
83537.3416885252
83533.440118863
83534.0689214561
83531.2410888755
83530.4044648892
83528.9318425366
83529.8864359302
83526.8864903137
83526.400983765
83522.3885196331
83522.2145004248
83518.8220421148
83519.0926082162
83523.0865720186
83523.023866698
83527.2264426112
83527.6920279584
83522.4959257265
83521.4230086063
83525.5567355358
83528.3435828276
83524.7391252182
83520.8587869199
83516.1551473837
83517.497078185
83540.1764561647
83526.6852169541
83520.4853269272
83510.9940704637
83532.1066810205
83524.4785336136
83521.162507868
83515.2999700996
83520.3332076518
83528.1313306227
83515.9979505785
83517.1001183943
83509.6425721326
83518.4844606351
83506.331737962
83500.349801035
83485.9902410918
83484.7135621937
83483.1670390946
83479.2676828667
83466.0166735086
83462.8565085845
83446.5373141606
83447.26856824
83435.9994217005
83436.1991177616
83450.6052141104
83451.8783160681
83436.7914009587
83432.2178342706
83433.2443361969
83427.2196260386
83407.0915385459
83411.0953545517
83406.2384641645
83400.5580877379
83369.2196276936
83367.5166051949
83346.53096901
83346.1961353304
83333.2033939715
83328.719558132
83303.6669228495
83310.3699129689
83308.7633805825
83307.5623159614
83325.7441348833
83303.1691766014
83295.5736129438
83308.3760744165
83324.6625094643
83310.2145886212
83301.1364091019
83311.2511707258
83302.1689907865
83293.7385639032
83288.967708221
83300.4089968036
83291.815706119
83281.8409068196
83273.3336517179
83279.4552648844
83291.9767233763
83286.2502039935
83312.8904602362
83322.4977354808
83320.9326335267
83330.0324373189
83327.0557237084
83317.290824438
83316.1331971226
83317.0295988356
83354.040525038
83354.270919158
83347.6237887729
83347.9411767462
83341.3799348737
83341.096355586
83334.4753229875
83334.5233953303
83380.4860663329
83379.5490824215
83414.8073091065
83415.9483412411
83442.3084813797
83442.0206408117
83444.9783518956
83445.2499865089
83453.0517953666
83453.5588947629
83459.8187510446
83459.8647750509
83468.2768228215
83469.1557405316
83474.1482478686
83473.6012055963
83482.3483044358
83485.1787316159
83484.1099271647
83485.6143221603
83488.5513792539
83487.2550635935
83478.2227948088
83479.9127288645
83483.929040531
83485.4279000039
83482.4212872418
83480.9990774641
83467.9615714057
83469.7456316975
83473.3225362848
83471.5724223011
83481.9008748314
83483.020397129
83496.7289370382
83496.0081361858
83513.8356285215
83514.1052510965
83535.1282259821
83535.2357057576
83532.9370811154
83532.6607475633
83560.1505217707
83560.9055326643
83591.2773156152
83589.8772762777
83614.5579101899
83616.5612381161
83639.5359978151
83636.8483805284
83648.9541490887
83651.9027658013
83672.2232804709
83669.9948452419
83674.2721417999
83676.3066017899
83685.8464795613
83684.9875908922
83689.4907752998
83689.8913485718
83685.7363998315
83685.5156820899
83684.4627874205
83685.9982356516
83684.0303883328
83682.6547762057
83676.415237678
83678.3195923293
83671.5593313622
83670.1272756805
83665.5030475732
83666.656883304
83655.9539629823
83655.1188722611
83649.3363702152
83650.1138655371
83642.8918917752
83642.2430298924
83633.0353177114
83633.4477926558
83625.9768991686
83625.6276266207
83620.2865567254
83620.6531826596
83613.5425712541
83613.3012678963
83607.0942955453
83607.3108571108
83600.6522275056
83600.54681199
83594.6384658115
83594.731767039
83588.6766367883
83588.6504310159
83583.0040877538
83583.0441031012
83577.6321180119
83577.6442433134
83572.5650776413
83572.537888111
83572.1162251596
83572.1684672493
83567.6693494422
83567.4755662902
83567.0231964685
83567.1618927071
83566.5044232375
83566.3410399398
83565.4944695604
83565.5887387104
83561.9563860933
83562.0415310909
83561.3258232474
83561.3177177812
83560.277671394
83560.3674936374
83559.4788357787
83559.4662932556
83556.8512662815
83557.1225580813
83555.5364515695
83555.5019859555
83554.9627902297
83555.2456772936
83553.6330161649
83553.5622611557
83548.8016171205
83549.0826002905
83546.5477686754
83546.1578277843
83541.9969914543
83541.7341815952
83537.8580220362
83538.0826426494
83532.7433863899
83532.619176396
83528.2214458136
83528.8256210019
83525.9339528836
83525.0592068936
83523.4328237701
83524.5472544251
83521.4932933441
83520.6219918717
83516.335915842
83516.4985484741
83512.9411112913
83513.506256014
83511.9003071133
83508.0911958613
83513.7787269671
83514.4189983847
83517.792514357
83517.4686689996
83511.1735269282
83511.2317461924
83505.8768060189
83506.0377392376
83509.0104085571
83508.2805635546
83501.2278727914
83501.6461552935
83508.4968528862
83509.2198163399
83503.7577344792
83502.1303026271
83510.2796096282
83515.3536354237
83503.5491375619
83499.7580156151
83493.0733276655
83498.8375507601
83489.795134456
83486.6515957224
83478.4899188524
83489.1124552413
83466.3221560519
83468.0662995122
83452.298295884
83455.5465841698
83431.0920727038
83429.2249169234
83414.733799149
83416.3745069172
83399.5292061955
83396.766581982
83420.7716272163
83423.2382509743
83415.7254410149
83402.5381238591
83373.0703355033
83379.3961715363
83381.1393897529
83357.0156042004
83354.8701289656
83331.1728287385
83334.3960320842
83324.3838087542
83323.7093184326
83306.5088808301
83303.1237729468
83307.9695523951
83301.7523890254
83298.370007045
83306.7448791277
83288.832939661
83285.21012762
83279.4303137735
83281.094774322
83282.3164236197
83277.3568694541
83286.4420262705
83292.3161050271
83286.6590176656
83280.9323435108
83277.723177078
83284.1283704358
83279.0405289127
83272.7814675945
83265.8388862916
83267.0247945608
83261.907892287
83262.1189547608
83257.2678103891
83257.1270019286
83263.1850250043
83260.6462669653
83264.5355630136
83265.7973254146
83267.9381017017
83260.1736108307
83255.7644186382
83252.3016382957
83287.0318479247
83283.5615069555
83270.3064307783
83272.6311512193
83253.4372900049
83248.9435404806
83228.6286758057
83233.161958701
83283.995281432
83280.6417950985
83265.9985127962
83268.8702792785
83250.7632249933
83245.1869189666
83221.2533848118
83231.0167272242
83210.691136032
83199.5410826377
83181.2414966342
83189.0147585887
83216.6519868351
83210.7122760092
83207.785796442
83209.7432677128
83207.4186408018
83206.1866675325
83206.3982577768
83207.1563280273
83207.8710596589
83207.1881128357
83278.9969146357
83280.4803329652
83281.3111329734
83279.9411403212
83283.2386452205
83283.6120165311
83308.7538007854
83309.7421873401
83315.6321973801
83315.0896520911
83324.9461917496
83325.0831764588
83338.1725575578
83337.9084869805
83354.9854415778
83355.3085594059
83376.7150490056
83375.8290565168
83398.778920961
83399.9512336717
83425.3495919342
83423.7806984883
83447.0614161941
83448.7750825618
83471.4388904107
83469.4435421861
83487.2980192941
83489.3192171824
83505.3796997358
83503.349890893
83514.8471571084
83516.6422600934
83527.6411516176
83526.1508504824
83534.1517421881
83535.1383764504
83546.1372722103
83545.7239906077
83558.8818232183
83558.865100999
83577.5544620481
83577.5651927501
83602.3185901571
83602.7877236963
83625.1814565361
83624.1439015569
83641.4790356287
83642.6438697776
83646.7848137451
83645.6880264378
83645.4359113325
83646.3161600697
83640.0434981888
83639.3095933876
83633.8093152116