/*--------------------------------*- C++ -*----------------------------------*\
| =========                 |                                                 |
| \\      /  F ield         | OpenFOAM: The Open Source CFD Toolbox           |
|  \\    /   O peration     | Version:  2312                                  |
|   \\  /    A nd           | Website:  www.openfoam.com                      |
|    \\/     M anipulation  |                                                 |
\*---------------------------------------------------------------------------*/
FoamFile
{
    version     2.0;
    format      ascii;
    arch        "LSB;label=32;scalar=64";
    class       volScalarField;
    location    "1000";
    object      omega;
}
// * * * * * * * * * * * * * * * * * * * * * * * * * * * * * * * * * * * * * //

dimensions      [0 0 -1 0 0 0 0];

internalField   nonuniform List<scalar> 
209453
(
3.61305091130618
8.63359933448335
29.5167465488165
27.1835320880262
7.67688717646047
7.4155599102002
26.2354065932223
26.5414574337692
28.1536392777961
5.81499331321346
5.56835576405967
2.92992700299395
2.73386487407732
2.89117124312876
3.0524984468573
6.10756560120109
28.1690690778325
29.1579361007212
6.08413521672475
6.23235949196073
31.0735607793871
29.9402738171861
6.45966456829676
3.2488260033568
3.05303786420813
3.30418033462376
3.49646602029511
7.2573941830438
31.940108233518
33.2850389939373
6.90215098379297
8.88762126749127
38.3305187696664
37.0209317811607
9.45122607795388
10.0950546615378
35.9646120632114
32.1668341627001
9.11695093881336
10.1082886121979
35.9767928155367
34.7377662890739
10.259268033658
9.78442943931146
31.0072359769267
25.6635654915042
8.13719165433639
5.5907755590595
20.3732172283382
16.8696866897626
3.55627719959466
2.38846642442995
14.4795569857631
14.0528732423619
14.3078949841587
1.08329660049867
1.0991218337812
1.02230798436617
1.00389502464816
1.00292195960236
1.00200584027871
1.00596339729736
1.0129758924058
1.02855081062323
1.01318512607552
2.48491693982749
17.5239305915949
15.8854154703312
2.40821350284284
1.15515197421503
1.81382262380465
16.0655071562409
14.4258424734214
13.9025837833343
15.3789557207479
1.15330750259069
1.1575256981522
3.88394958856501
18.7305192700722
20.1815833042211
3.92605808207928
1.3346679951734
1.38299911554287
1.39071682090791
1.33773790906344
3.74292912490586
4.01215876529168
4.0296800450149
3.75339532980029
2.63640226207045
2.6639019215053
1.39962253840774
1.3426063541937
1.111789728187
1.14342071981525
1.41880183520403
1.28932935522115
1.40515324127983
1.5092771640339
1.5405769241025
1.51026724464852
1.6541964515418
1.69024308213987
2.10306863242959
1.89058182449898
3.87729456818253
4.34618099502058
5.64270315705821
5.4733710065639
11.4926134210197
48.3316752108479
46.155649756943
11.5417660843249
11.862503611832
44.4671392749465
39.9875685943762
10.7011578324744
11.4966701008219
41.020020313745
45.5612125133405
11.5838069473739
11.9835092678667
47.0162784502838
52.2146161377416
11.7307583730205
13.2972814228395
61.2230060590107
77.0496560822683
20.7206252229518
16.2136219976978
58.8091920769061
50.9770859305834
13.4473313127752
13.8772083608994
49.7394685893885
43.6199916771002
11.7508897214573
10.7307715795905
39.6237758045217
37.1717062989419
10.4267490351468
8.22725029956798
31.428097708133
30.0128515163334
8.00331095823029
7.76070437151025
27.6902156344398
23.8655278234503
6.73856454484692
7.31358558309148
24.5630418824608
20.4120936863894
6.11824590549639
3.8306646763961
16.1769690570173
13.6650920389824
2.46336284821746
1.03664659814497
1.00859852229247
13.8942970606446
13.2922700403185
12.1490817759595
12.0440114848185
1.00303957912932
1.00997337091147
1.00308999805855
1.00125378703245
1.00310091500793
1.00943286923197
1.01168442404171
1.52895949743799
1.47065323100102
2.18603810992085
13.1957283846398
12.7852563423944
1.78347778795147
1.00577425515284
1.00165567424825
11.8553295065862
11.9247128943586
13.2253412374122
13.9077560261076
1.00409105187286
1.00982145122036
1.00101149432846
1.00057739871757
1.00020949214556
1.00039071276946
1.00090561095846
1.00038236138748
1.00067238040391
1.00296418348588
1.00119468985152
1.00040670952274
1.00034087553909
1.0005071851428
1.00009610126861
1.00006972268468
1.00015103280055
1.0002715927219
1.0006469366314
1.00032896462025
1.0006572102799
1.00258450315013
1.07168071649352
1.03809329316066
1.00432305482541
1.00821580616865
1.0310568376443
1.02174877989487
1.0378208507609
1.04983211902992
1.07348889871007
1.06273992176422
1.17279711787316
1.21259515614181
1.25396963277157
1.2149991868139
1.26673242027419
1.30711959848875
1.39514890776271
1.34170305669492
1.44603101873525
1.5088898518058
2.54503718340428
2.30052622894207
2.55623379305825
2.7183545726909
5.71627727280841
5.55477920623351
5.54940592056996
5.70387828059449
11.2146855201433
12.7878936278674
14.4826634487188
11.8650956412474
11.4771531961138
13.7446198568055
20.4626729632458
88.6895897932416
66.3625487637177
16.2633414683255
13.5502522107164
56.9362620421986
59.4278951885123
14.0927958566449
18.8850414764956
61.7995197683703
54.0952023439211
16.5223094811127
12.1416966831579
40.7920393664072
35.3108332784113
9.43762077654267
8.54486704472284
32.8567355249935
30.8752977572802
7.96106077598037
7.93508727677791
30.1853093443289
29.630289467858
7.96687517168661
7.96803831445541
28.1143814945201
32.9197465281345
8.67908661534454
8.16543663009161
28.1826645905283
28.1864015458866
7.37825300758862
5.40122244562498
21.1722803159486
16.2155260887534
3.59865194612607
2.60660087335226
15.1428633808455
15.900375187302
3.60420223882321
2.20300235287444
13.4830819389398
13.809420354671
2.07577916274786
1.01102478271745
1.00366816996686
14.9601036976029
13.9559883377273
12.8202297372741
13.6187197866316
1.00311040564632
1.00857217651407
1.0004785113512
1.0002059959086
1.00020666997545
1.00046524586369
1.00049190834192
1.00019357319247
1.00018489062498
1.00056149986559
1.00060673732313
1.00009656318697
1.00002057363646
1.00001749068391
1.00031749099211
1.0003798940348
1.00171905699095
1.00132880232578
1.00692714309961
1.01137132768754
1.03468072495876
1.02457214572985
1.03508835927026
1.04519811674915
1.0620927210047
1.05515887761972
1.05152332717565
1.05816460524919
1.08485491556395
1.07749826031309
1.09255337295316
1.10500454885599
1.14387318787249
1.12922801749248
1.17705898680475
1.19478823578859
1.25947400130258
1.23441597870803
1.26850789843153
1.2989140004048
1.55074659901893
1.48416317155739
1.50757091145565
1.57524106480185
2.59526632049056
2.36115181693781
2.43267766416704
2.65369825073661
2.8603959082002
2.73235598578172
5.65741829939996
5.82192917546825
5.80457434251008
5.63027399600531
6.28586035246127
6.28986162535363
11.7618227552047
14.2084179901371
21.1386916410164
91.961958287897
69.5520012660109
17.132774866378
19.872861621288
26.6043650524981
104.236496337559
77.2158898321674
66.8722525318587
15.6877885407876
17.7271366281902
76.8158505022757
88.3978823032185
123.372647948576
29.6919827423028
21.2169388996582
17.0701378899329
17.0951175855926
17.1696828756461
17.1044751822049
21.6332217258794
29.1780700017402
130.145327449318
94.0063179939122
89.0043705014265
21.4527840069565
21.0629645979604
91.2598857483918
90.792964643362
21.2145544993649
21.0866102942952
83.5128572194522
19.9938326586979
10.9758455722628
18.6383704679849
69.3357031694626
52.0214304501494
16.2912313070543
14.6974734392225
44.7560879585059
35.4440425044836
10.1440931763639
8.23718387818381
32.091042765533
34.7858420521544
8.50729407321899
8.4265749536888
33.9529040468164
33.8929090296712
8.48456670371842
8.62059068995755
34.3431336470166
43.7808184763199
9.61503670218606
9.96251396603057
40.1163630614453
34.0043623071233
9.07676067954628
6.66227941653815
29.7448434636205
25.3125491809169
5.90819829696757
5.48438902912297
24.8844398013107
18.5318692849294
3.65194448091116
4.79449409192148
19.0576264091661
17.7774339326883
3.80023159245581
3.29546032987286
15.7710730006393
13.4752325827814
1.81005845178229
1.45465670912217
12.524338764752
12.4917349851975
1.42253229133016
1.00767700918252
12.8051996836974
13.6019592474098
1.00275111206234
1.00038133646904
1.00083927147884
1.00059089598621
1.00021186936873
1.00018548064168
1.00065568785521
1.00079074225076
1.00015347419541
1.00009397016943
1.00236402135215
1.00066080139384
1.00040191961601
0.999971415733235
0.999959035574488
1.00159671866037
1.00148064596348
1.00644933091473
1.01643787133867
1.03617189046262
1.01671383270214
1.002188973376
1.00437927006209
1.0908924441286
1.0511365560742
1.11517864304731
1.16419396513906
1.19408894857638
1.1405797813127
1.17634245397968
1.23066067158943
1.07668810407846
1.06426359167993
1.09449046163623
1.10755548657314
1.09034382713983
1.08194100095754
1.11799274175895
1.12665389153797
1.12030183752541
1.11173708579337
1.15796021300309
1.16826360891016
1.23211479731684
1.21423679344866
1.25002645980141
1.27497765401852
1.30316468812344
1.27131786743606
1.31601686211428
1.35624719594453
1.34837110288814
1.30886845130237
1.52788587415307
1.59895362793201
1.62301962262458
1.5556462846952
1.60421489117619
1.68108632801026
2.69923374658359
2.49071461485207
2.99104883130732
3.01973015032851
5.99780462743023
5.82897885857092
6.56036553074234
6.47209228747991
8.59212615885744
8.96936936842281
16.2958955459033
13.5628541625843
8.16139783622315
6.72643387630816
4.57878619470784
2.67647249578747
2.30554635733934
2.32126927243251
2.35598574815733
2.33183030797196
2.28533971808026
2.92867050845637
2.89352334681703
4.68877712298795
6.73597776972143
27.2559887385632
23.2921237620543
5.82673572764989
4.52313014398473
20.7466808823435
19.269257842287
4.16682258840567
2.23708604730079
15.2193585888571
14.3935391061539
2.06094177472082
2.00694342328867
14.3146805664213
13.4181592772138
1.7734229408134
3.19505696480823
15.6313153239161
13.7467377548482
2.01508165269586
1.01090395219213
1.00331597077733
14.91148103987
13.917610742991
13.1720221517593
1.01404293796352
1.00857084690687
13.852795650661
11.8119535583054
11.6874945772025
1.01081187227055
1.00693756238701
1.00032358573593
1.00083368503276
1.00080312904257
1.00030202636854
1.00047799131491
1.00135149865311
1.00234082978888
1.29709792784955
1.34585504263996
2.17881568663835
13.4147709061818
12.1989920817022
1.62449649998193
1.93144179217378
12.3458471820107
11.8566927582387
12.0248778043568
1.00250100239938
1.0090221504382
1.00233910921816
1.00054600935843
1.00177109133818
1.00909718389688
1.01910713747028
1.00180743958581
1.09893437804209
14.2885422138367
13.9182945628341
1.1083693629101
2.52323594472019
14.3626940517017
14.3825697184406
16.156102059443
1.65859962980504
2.34043336800329
1.16160630599167
1.15075677369207
1.18521354849738
1.16842714596649
13.8977378613854
15.3720833160207
15.4957257067186
13.6983143348931
4.46610537290986
3.90305018676138
19.1208689192799
17.7117504981788
16.7646008766023
3.54545939752669
5.48874706796269
19.9951050602548
22.9946853084832
26.1277007031475
6.04553820393311
5.7151767609666
4.21559653216874
3.60824688726695
1.36613833685329
1.47482021693182
1.48607021157558
1.37392079689363
2.4939544782239
2.72826298393701
4.22167917669974
3.61819832103814
5.69174692296088
5.70825819259063
25.5114345486067
29.5614897613396
28.0189623813529
5.72406242140911
5.8328768866315
26.4048992210941
26.0434161333166
7.5099359164565
7.73296241605032
26.9077521049588
27.8522665422477
28.7694140925906
5.93002829998032
6.28396808001077
3.05086140549974
2.69615438025615
1.41529373909065
1.53799025435322
1.57049074667116
1.49580574645061
1.21713402380971
1.27058563308944
1.31986249115904
1.2677019579548
1.13335231343457
1.14546563197828
1.20109846549687
1.18867259637654
1.16873600594392
1.18162429130317
1.25430350418057
1.23326518653806
1.27815004512966
1.30651117077636
1.28000595781399
1.25404591660488
1.30721976789903
1.34268582063701
1.3313196247767
1.29698287484693
1.35038278873897
1.39952964924503
1.41962142531851
1.36596133116804
1.35677930733135
1.40879412892887
1.65435176610655
1.57517589745012
1.59647458338782
1.67411231104956
1.70884010407109
1.63269252310203
1.66341532288499
1.73202504035019
1.73434731098105
1.6626108513507
2.4926790278992
2.67737269686968
2.75362472284329
2.56777143577509
3.00033672146401
3.05426265972024
3.07516275007316
3.10722876681574
3.45015118867118
3.08168241096343
3.03793609755256
3.00905291731286
2.98529158877483
3.03118803808133
2.71326931584935
2.51647715491998
2.48533786761066
2.68098142462918
1.70103569448565
1.62602549742839
1.62975112183973
1.70217344265813
1.73236332000976
1.7870764230955
1.83584116514482
1.84949025037088
1.85515681437668
1.88607535096932
1.88233559819624
1.88883844102873
1.89008076369057
1.93511876427506
1.92577394613351
2.01276762185941
2.20790057840045
2.21745358797081
2.51740280002702
3.14168866523764
3.38998613245905
1.80609518543078
1.84975915961679
3.86950174359237
19.2768240912551
17.9430965922325
3.35991546230298
2.71803277880354
16.3471556823381
16.8166200247389
3.21589531235833
2.28048648440873
15.2089599001567
19.0872663229345
4.18714358114065
3.6357197585175
17.5225416444172
17.8778414546656
3.9868457987436
2.90015963553503
15.858638376236
16.8111019977887
3.91390047596279
2.81902783612174
14.2387101503305
15.3744158785697
3.3664378723911
4.43050129866755
17.8733273674592
23.1679553591912
7.02889127146944
6.12975486178366
23.0535723459186
25.4917309853845
8.16544538228902
8.72408583570794
26.3664169726367
31.9312517531513
9.64234205353898
8.6245025818042
29.2465752989575
29.6529470743675
30.7212318290734
6.02650417436341
6.5672263263914
3.18533924064855
2.83023790288019
3.04444912916986
3.39922921437915
1.66898750058994
1.60619974631627
1.79677531347888
1.87514821906817
1.39707372170529
1.34264381102478
1.4462789453133
1.49883549792072
1.27811125616125
1.26068143639496
1.31298354818674
1.33778768395869
1.30647837732222
1.27817298567346
1.34013292766485
1.37858796084574
1.37368137201702
1.33519814168379
1.3987103417074
1.45441330127064
1.41716016170492
1.36433171910639
1.38893715630214
1.44359996966501
1.48336416479831
1.42800680155113
1.41869557528205
1.46513066119283
1.46933060292174
1.42104414931235
1.43814979361283
1.48607184861181
1.47853202146401
1.42418603614077
1.41733730418092
1.4644997488681
1.46632950978748
1.41600839287818
1.62872167598237
1.69836685088375
1.73323286441136
1.66577549105064
1.67595299619295
1.74682685148334
1.77683019290082
1.70366641341502
1.70383396166972
1.77231102814502
2.69302326509375
2.51221736914874
2.62440022846214
2.80173786216718
3.11072421695717
3.04512974349943
3.34489231969189
3.24072265744062
4.60302641606503
4.95578758851125
5.01251255816273
4.66923112417871
6.55653842615143
6.6495304146921
9.15680403348787
8.73193918825072
15.6558260426232
15.6337437923547
26.2922654307514
114.900685620219
88.2592327393185
21.0923151563646
21.0690961812662
85.7012796842484
84.7837397276273
20.5339957449836
20.8429745573804
93.7502431615468
94.9397836044779
20.9022287711854
21.0197334158869
98.8348748626554
82.001886491603
21.5189761351677
23.3322226009077
75.4358554711737
68.3841953937197
20.7651178559042
20.0068665987943
65.638597488031
60.98666554178
18.3049562097493
16.8355200309032
55.1153240551711
49.3581239413665
14.0781355752636
11.4655878925645
41.3987764840113
36.877093715854
9.4629117129583
9.79438324729637
45.5406013516976
43.7675353083752
9.44725539566338
9.42749013120272
42.6943526931457
42.9406072304441
9.47928550063307
9.62224591025287
42.3301348000385
43.750970194192
9.73749246739572
6.95350190213222
37.852735158751
33.4002059470377
6.88066301534267
6.72215727233889
33.4566476272706
6.05903072237106
6.74124827866539
6.93158457033156
33.3621405115384
27.4248680494267
6.41187189456736
6.33455664342339
23.470366423976
2.40405336847303
1.15099286072223
1.12295103399405
1.9292739520834
5.41134579292108
20.9369130132865
19.6541633268542
4.06046686249249
5.85325947895173
21.5027613054615
29.2663713325271
7.77934992846074
9.11585437025822
30.0885651761597
27.7961525397495
8.07707249637299
7.87800149878551
29.0673793600031
34.4507195175089
9.92458522032413
10.0237733649809
35.6444772619346
32.198993842016
9.23839922519702
6.64770999879519
6.06257459040741
31.6712096229428
30.6280676009897
34.2023556855884
35.4270265036848
8.06806183356682
8.931578654495
4.01000693487158
3.56748971533788
5.15542116764404
5.79273936974519
2.23969346366838
2.13968861567309
2.21928795260158
2.32145765442482
1.56258568692244
1.5049020127685
1.50737407632595
1.56289914557429
1.33616349760448
1.31242853618095
1.38341698946029
1.4194033453094
1.41568442373317
1.37988354850212
1.45884981859485
1.5144432482094
1.467769449298
1.41032247929071
1.44687195238962
1.50207887069445
1.55011246621326
1.49761595391136
1.48123557510203
1.53251577835631
1.54292989849942
1.49127536538668
1.4460723182872
1.49661286428431
1.54818249061659
1.49740284009946
1.47288857036169
1.5283563627834
1.50866370832234
1.46171335147024
1.46425227717584
1.51150049509971
1.52883541133306
1.48371269272052
1.4662653917755
1.51936719903377
1.50528771179526
1.45617593174741
1.45597898704475
1.50362820070437
1.53934903554678
1.49148883904929
1.69830655295169
1.76943431399638
1.78496575090458
1.71519627363256
1.74069564355702
1.82106563945867
1.81020292325301
1.74166791720444
2.5321496261696
2.71390085836956
2.859130130972
2.67995098620372
3.10299639941883
3.1722450921186
3.30212059443302
3.43821288511599
3.54149222622639
3.3726990382018
5.30387799625859
5.61575246724777
5.6136254774917
5.29136086424795
6.69030263638308
6.77405321771835
9.30500032240149
8.8503288499638
14.791300812819
15.2938689846501
25.1246675936852
105.903248571956
82.6226013036495
20.8159732161466
20.817104203301
83.4402527858087
107.639378265109
24.9075513811868
15.2630367520345
14.6503378331768
14.7669138414344
15.3991866195383
25.0490308914418
111.651278171816
86.7261302035553
21.0449780063849
20.838063507781
92.830767945775
87.6790939435904
20.4120165116477
21.2638893893895
99.2465460150453
106.516466965361
22.4280701676148
21.5837223968288
106.999066756307
99.6001749354615
27.9227756832253
31.5488933146571
101.195748597311
88.8005652613431
26.8999349424855
26.2370359118626
86.5167826105404
77.5247377949081
22.6310516707568
17.0626200908552
63.905901629003
77.3789160336939
19.1330501908286
15.0250679489138
53.596056118356
55.2469058987803
13.5346532645125
12.3344833255937
51.4926399277448
47.9498501047697
10.6390444569236
9.89801864977819
46.1280540685381
43.9809404168419
9.68881003469258
9.62630044567787
42.4246801477008
41.6844389438234
9.58423246900084
6.927790615644
36.1000942922944
36.5502231360389
6.90342001527825
6.78476403219888
32.6799779284612
33.1558015381765
7.36969483591616
9.26091184633923
31.6596674460502
36.7883896745194
9.9035016851372
8.88412258763229
36.7273704386149
37.7336583891939
10.0605141433425
7.9272581672175
28.809032356371
21.0712425338657
4.92638832717168
5.70853817579811
21.5427980271783
19.3482104178725
3.98940249666983
3.51081620592921
18.482328703499
25.9556704078003
6.31251227297423
5.73692143398832
21.8901303307469
27.8880109074085
8.48280025885615
5.79251527184934
26.6157385790148
25.7940631905655
6.31558703629884
7.01527072252865
30.0668426270208
34.8951435355403
9.25716268589273
9.27086176385037
34.90755455418
30.433027538811
8.298047479473
8.70160237127751
31.7652554675268
37.7304330247022
10.7844923133982
11.7795174154317
39.9677272592639
37.9863473255765
10.9487791268317
12.8384645118241
48.6177388965093
42.8806947844308
44.6059309852977
10.5318215754163
11.6123617626504
14.3907306766315
14.0415428971138
58.581180176721
53.6989803193262
59.2441036910188
15.0334028428084
16.2763243509804
66.6236635226238
64.4729225324572
77.3607587542646
19.4732677574506
17.7036907600425
14.9837003717239
14.5327733565225
13.2890366337792
14.4006870710448
6.01174691442529
5.42202655566503
5.40294832476669
6.01815475582662
2.36284728977497
2.2415117130965
2.36676368980846
2.5003608045811
2.41820092188383
2.30846737494497
1.58938032793384
1.66090326348468
1.64687703033285
1.58166743164865
1.67503220444122
1.7542424753481
1.52918181173886
1.47399439209757
1.52617182584681
1.57644952919644
1.64882297843735
1.60149400440635
1.57652786975009
1.62944470576431
1.63248738319016
1.58038371550734
1.52416451992527
1.57749480653457
1.65866886938504
1.6020269502259
1.56058514934572
1.6159891238646
1.58769205415786
1.536442229274
1.54630635926238
1.5992877835373
1.65738455543483
1.59882166176263
1.54431033113228
1.59814256280242
1.57113289811576
1.51304767995466
1.49940167442956
1.54959908813206
1.55091214360961
1.5025576121756
1.52504735906294
1.57037895155217
1.55885321588084
1.50472898520227
1.49170711562989
1.54492186144196
1.58231683369607
1.52458470873464
1.52449508210936
1.57428123788951
1.80577403427179
1.72877124931692
1.75250099487615
1.82678526982376
1.86545911211922
1.77797363122053
1.77991114455325
1.85468233531653
2.73939461258648
2.5555403992794
2.73822347418914
2.9202717902448
3.24615366301823
3.16589437756902
3.23225242803
3.3185413649343
3.43284930326118
3.61973971936517
3.70124301073891
3.50503517468535
5.64842469370719
5.99046178053997
5.95876388434787
5.59068615137518
6.88037192632699
6.94190955862468
9.54978386371345
9.08694953839245
9.43949913287936
9.87578283242352
10.2660676225264
9.86629528782026
14.9932173036056
15.645424721047
25.3579370553995
117.215267061576
91.1831221383913
21.4408718706652
21.4030443436072
98.8578829140168
114.900028468437
23.6049944803159
21.8731840512989
115.574689740326
115.703932357336
28.8745167081295
36.5315203835818
149.05577144273
151.269506374125
38.0605511153039
39.0629495752931
135.700874019665
117.764318102629
32.9749567639002
31.8361299357462
115.95649200756
121.694877905373
31.5718522514774
26.8688900669345
109.629198030397
108.366497885899
27.3533853448846
20.562570173357
79.2461447894188
56.1062612458756
16.5949769742855
15.1539952358708
58.2016467914761
53.669510147462
12.339396052326
11.1804669878092
51.0228968185019
48.501777797344
10.3963744892376
8.81059848729914
42.6677942141663
40.9676970256784
8.19498908530092
7.78203042188674
39.9085618627141
37.9279303105222
7.59442620020586
9.18468361464869
38.0097614121295
44.3600976118358
10.6527113275232
10.7409101635681
46.8547605552049
46.831091782892
10.7464082715415
11.1365496079737
48.1443018678619
49.9357476216695
11.4955523993714
9.66297446489796
38.2811568809444
39.8706914531049
11.1675388251901
9.40613543531113
30.612310424918
23.3431408511173
6.0689939069573
7.46962054589009
25.7978108588445
33.8671776350705
11.0589763957827
10.1238103772436
31.5694380739728
27.4750350656746
7.20241699899117
9.34776798076335
35.3430923267239
44.8075465148368
10.3973157383808
10.0178692607835
44.2318451352307
44.38741583747
10.1003432445826
10.1141131465531
40.1737131315439
35.5524159251507
7.37343723502734
7.11860985756387
33.4615601161132
40.4752662520654
10.3346736605962
10.185833461256
44.6239013194377
35.7158587082614
9.30460567060157
8.85645482750987
32.3134461039298
35.7553306492018
10.3506520391594
14.8259982892635
46.5980014177452
51.2044544570085
15.3869836495647
14.8735680837455
60.1851552831219
67.9620397344353
17.3410488915148
18.3550808856723
75.3122298078282
79.0993725448743
18.5812264807465
17.3204648527052
71.7608724819981
74.7369254101815
91.1003086038136
19.762374337435
19.9291648388968
14.0217739311798
13.7805038710677
5.71269694910119
6.32374215547872
6.15121135282778
5.58098645579697
5.76865859265199
6.25528442816014
2.6671959131736
2.52121841775866
2.41520010321987
2.52533264109568
1.7876910598703
1.69949974564254
1.76475412869501
1.84510111892342
1.93664067375674
1.8636678269518
1.84374455840685
1.91195962633156
1.87406234916773
1.81573405161171
1.63176311336906
1.67813529240576
1.8132099474255
1.75817944266705
1.71325209762731
1.7596494381885
1.73693969547586
1.67914917346553
1.66804168635038
1.72621042268581
1.85456497530259
1.78726179889398
1.69575221266722
1.76025949453945
1.69764768679991
1.63793534620856
1.5966641700703
1.65147109695473
1.73022293124855
1.67360285058245
1.65025186635714
1.72224245331529
1.6476919993487
1.58869687426637
1.54980486002392
1.61303859409692
1.58652792594111
1.53264206927565
1.53528718363044
1.58687546357518
1.60978396130187
1.56196107398624
1.53976207200151
1.59691967358959
1.63327424445266
1.57369981943248
1.55615965205053
1.61702301168628
1.60826148838239
1.55613648907057
1.75909803661539
1.84078947323618
1.87107010742672
1.79081724110371
1.81659628551382
1.91051954532775
1.90131995119879
1.82018935792191
2.58273220857172
2.76758038844531
2.98340930507318
2.80002683773731
2.86291958707613
3.0476292180236
3.40079687861461
3.30256208464282
3.37514076596284
3.48027492303486
3.5726604616171
3.78399488235906
3.87220854714195
3.64990480852718
5.88223516363137
6.26276616138835
6.22283253689949
5.81498070900326
7.12286453540087
7.1357976870992
7.32699297801351
7.40731901804466
7.71517067894442
7.54777443188986
10.7051099967365
10.3449468941478
15.3000056481921
15.9784455205073
25.8033649010158
123.493726004762
96.0556703773756
21.9806100727339
21.8936741312068
105.372740273224
123.775652589977
24.5131415450193
22.2656161594589
122.730306977064
121.821871172882
28.2228399556222
35.2502240603133
154.054676576693
147.742605797567
37.2684893735383
32.665002510985
118.998914992651
126.557163224289
32.5168095124269
31.5029861579314
126.709116957396
118.334841118671
31.3231819758791
31.657846631703
119.6995660564
126.779923990995
32.719319929616
27.084713442738
112.602096332014
124.725412981622
29.7061697604709
24.5009927995055
91.4618444107809
59.3615825159421
18.9682435245442
17.5434736579142
61.4684159971843
56.4798227609197
14.0246928194908
12.2402076126274
49.6567178209709
47.0460868267518
10.7812944324381
9.64965013357037
44.7180782035374
52.504047983057
10.9584901518935
10.3255689128886
50.1580402147967
48.3166453326465
10.101596755101
10.0780739241722
47.443803250631
9.66044485832968
9.02039146353261
9.10152699633409
5.85091850196357
2.51285652800142
2.38518372889395
6.84118769386778
10.8928242610163
41.3627726243774
50.8156241173825
11.8701718370079
11.3790739867531
48.5641662368729
46.2319896988922
10.7817154379107
11.1617840768883
46.0225480808164
38.7597045662319
9.33272881086052
12.1808081537978
44.3205922167273
42.7768520111566
11.1140643871838
10.4764447167587
43.0401392674161
44.1916573928914
10.2551932792768
7.49872509025622
39.0508098560874
37.8064213641274
7.85094773708103
8.45790219454392
37.6619359435842
44.6002243953799
10.4981086653863
10.0810042797772
44.2600407386204
44.7382862901574
9.87773387596916
9.74552948837565
4.63126079701679
8.36548246516877
34.8435980713378
34.3529374989937
9.44403499151331
8.72320289481845
9.15137409591838
5.52616894997626
9.00943126714208
36.0199231072378
37.5807291483096
10.5322883315158
9.13093341361816
9.90336850451832
11.8739334950874
48.1502088105396
40.5254719978202
10.3086340632908
13.4642884549649
46.9220340618683
51.995191123682
16.258271873478
17.2929893395333
46.747661447426
47.1025681599697
18.5176741643475
19.1714552962597
46.7213666347832
46.7844791884216
19.7999666880759
21.9219660953546
49.1021240855485
53.1126623129
21.9052350142945
23.6787176142645
61.9233728107773
76.5049748923664
25.7166023694977
28.9904742011199
97.1196308071566
102.13136787646
29.9421156920874
28.9260849992385
93.3416566236098
104.494590602131
121.803553700144
37.5940395410151
34.0909426796176
21.3461414336418
21.3994683881493
15.8756459450822
14.7352030188864
10.0185700618437
9.65862616416597
8.80207217747878
9.43396728646783
7.92694791925847
7.36266545732269
5.6266914209529
6.01432272598894
4.41937717852407
4.23653590517345
4.2271460871259
4.39635360445069
4.32700207049757
4.15121902179891
3.99911431455151
4.1827427230359
4.11997942166247
3.906021695245
4.0960197886559
4.31867171804965
4.50488198484495
4.2506166381714
4.20255098111267
4.44868765525025
4.38521752647723
4.12253073697522
3.95128655929273
4.18402004246831
3.834189506949
3.62966656613201
3.24125352497648
3.41508771724073
2.90120326334586
2.75988787082259
2.43971626775
2.55233211734169
2.25498914053609
2.16956135620127
2.01650451463207
2.12050576476083
1.91962090167305
1.83686495506138
1.73065101242607
1.81729642067932
1.73251845485409
1.66823341260491
1.63303719320462
1.70090824796136
1.70797275202249
1.64811507644964
1.62856492526141
1.69604212842771
1.67786851663222
1.60843084727699
1.61292646431628
1.67164019563136
1.90112650353876
1.81441764413714
1.8649138182897
1.95845533363574
2.0008236964104
1.89540656370383
1.90524626828935
1.99816769891109
2.82246807832973
2.63775147155085
2.92635621367959
3.11138497420037
3.17423496835356
2.98857478332646
3.45117848905523
3.56899881696917
3.65362196626101
3.52793334135537
3.962813674429
3.72593984017597
3.80681624308279
4.05861219668409
6.4991675184832
6.09816646220367
6.02452986183688
6.4526415023629
6.70622012025908
6.30347326883816
6.21522594222926
6.65456244519168
6.89465993525976
6.48319454888443
6.37293422642991
6.83722388181639
7.78541716861244
8.01949279040132
10.8560290948484
11.1503595997539
16.4030328868651
15.6988284399459
26.098407184508
28.9005063400605
136.393393889336
107.986505039398
114.30343625657
23.4477831759383
25.0623064725763
133.312196399286
130.51150699189
22.7414938650751
27.9270498798506
129.276175368918
162.68587249013
34.9441022088889
36.9313219965631
153.00570714673
121.516127516548
33.1453503538003
33.9005070347872
129.286320827017
142.913103677791
36.784293585056
37.2425718616001
139.433228796145
163.317904990772
47.5634874097499
32.6965137248331
147.506577906326
147.144939561507
35.7600442189742
36.1876038727292
114.616616394933
97.5988041627545
27.25821809008
25.9983104667205
82.1360169312818
60.197282924246
22.5753835054438
20.2617968035358
64.2826124037195
59.462526582521
16.2587140578118
13.9916080628805
52.6278566966007
61.9207453660272
15.1700292881679
13.3682431526271
58.3523222200398
55.2459223525021
11.9555418674584
12.206242160901
52.0960389571923
54.6207113328288
12.9348459120304
11.2058822077024
41.1544008201921
43.757944846589
13.0692811608141
12.8073496791098
36.010454665625