/*--------------------------------*- C++ -*----------------------------------*\
| =========                 |                                                 |
| \\      /  F ield         | OpenFOAM: The Open Source CFD Toolbox           |
|  \\    /   O peration     | Version:  2312                                  |
|   \\  /    A nd           | Website:  www.openfoam.com                      |
|    \\/     M anipulation  |                                                 |
\*---------------------------------------------------------------------------*/
FoamFile
{
    version     2.0;
    format      ascii;
    arch        "LSB;label=32;scalar=64";
    class       volScalarField;
    location    "1000";
    object      p;
}
// * * * * * * * * * * * * * * * * * * * * * * * * * * * * * * * * * * * * * //

dimensions      [0 2 -2 0 0 0 0];

internalField   nonuniform List<scalar> 
209453
(
83646.2233965575
83661.3742330444
83683.0588590104
83660.2039985924
83645.7381928036
83634.2619302586
83624.3225812317
83612.0544862024
83616.9072632853
83624.9745078275
83624.4299918013
83621.7214187163
83621.7259992824
83632.4074818314
83631.9333324358
83640.5818588739
83644.4250024619
83642.3447310561
83641.8633019188
83654.7045645021
83663.075716769
83669.0916541721
83654.6203966821
83645.1406013764
83645.3825021977
83655.3895126535
83654.9624804066
83658.3619897198
83664.9612398899
83663.3335033577
83658.5465747978
83661.9439272205
83663.22044741
83662.2515392106
83661.0448505747
83659.4085178341
83665.0696066469
83672.0070214981
83659.5539993714
83658.8717681952
83672.5318725679
83659.6608944396
83654.4511784751
83659.7835686296
83679.0752426755
83620.8474241166
83628.468789746
83603.5726960812
83575.688396217
83583.1807773854
83599.5719670113
83596.3822040899
83572.0676939018
83661.6800342388
83670.0450307567
83629.8366830173
83619.9664342698
83613.9643857664
83614.2000661359
83614.7120633254
83614.3710162692
83613.3643820462
83614.7469171898
83609.373329953
83609.2879057535
83603.3655110862
83601.7919164616
83584.0749188739
83599.4954261784
83616.91808318
83612.9315783538
83631.6653834786
83668.603878649
83663.206024727
83643.0631979045
83622.1594859463
83626.0233202119
83602.3603275114
83591.0758296003
83598.2696957169
83604.7595288713
83609.1644879485
83608.1094502063
83608.8675152889
83610.8753888967
83611.6220903436
83610.1605476109
83612.7164542064
83613.2906723333
83615.7124846141
83615.7837335512
83612.5681850927
83613.0620379878
83615.900486513
83616.1833161348
83625.446180718
83624.4210230664
83634.4382878993
83634.0169685322
83644.9805006385
83645.9996180363
83656.7674869833
83655.8766463928
83667.9518289219
83668.2580295985
83664.583737255
83664.4150663848
83676.758189658
83676.9131945071
83670.8079897293
83670.153905083
83668.2202086661
83670.6046990301
83671.1784614506
83668.7326011859
83657.5236815438
83667.2217095898
83668.4397904476
83672.478874532
83690.0655467057
83675.5460469476
83675.3699023476
83684.1785031025
83682.3745519843
83678.5066862765
83678.7571278002
83680.2317210379
83682.693945238
83682.4436475792
83680.6327414368
83680.4522128719
83678.906249411
83678.9454484978
83676.4305293819
83674.6131484485
83672.4000836413
83671.9600486252
83660.4898532098
83660.76310636
83653.8482646524
83652.686383192
83647.3703443616
83648.3411591037
83646.6244309991
83645.8100741449
83648.2510218307
83655.6506131616
83657.4782661116
83635.904808322
83632.3319497778
83642.4019621015
83607.7897548298
83611.7696434561
83604.405066356
83601.592606696
83590.4233157513
83599.5543749147
83610.2952641582
83618.83491286
83638.9573548526
83613.2739342853
83605.7033934697
83623.6911982388
83610.5570882142
83606.9348485162
83608.4018847222
83609.5523339959
83612.8733934815
83610.8330278674
83604.7331025319
83602.7248963604
83605.007936686
83604.469170558
83604.5836393867
83602.9465981443
83604.0824628963
83604.1103116296
83606.5426602711
83615.2655082565
83601.0160083016
83599.2258956695
83609.5823049241
83603.7605179358
83601.4255543561
83601.8888959183
83602.542752926
83604.2763471465
83603.9697065832
83606.5883638609
83606.7199462472
83608.954512507
83609.0075979725
83609.6291682227
83609.6126337945
83610.0716024589
83609.9671480742
83606.978281975
83607.1921856526
83607.3561734128
83607.1507387907
83607.4998397678
83607.6938892826
83608.4123466966
83608.2963767821
83609.4040259432
83609.6959528654
83609.8126202924
83609.6039986352
83615.4996506263
83615.3857621138
83624.854333714
83625.5936803069
83632.6606561325
83632.9468303391
83633.7422063268
83633.3775208037
83643.4150964353
83644.0173667744
83656.0121002119
83655.3729994516
83669.9536736446
83670.2034185899
83687.8272601792
83687.4846810028
83681.6165604078
83682.3153055512
83693.5339884222
83692.0871061559
83689.4944424792
83690.6635367269
83685.1772373193
83685.4044805075
83683.8855080483
83683.1732842986
83686.3739859668
83686.2578223702
83693.6097725156
83693.7885534361
83689.3674176443
83688.3816321225
83685.3817492557
83688.0190548554
83685.9543866997
83679.1759955512
83691.0698759991
83692.6724643843
83690.7301207439
83691.2878213851
83690.5731067545
83685.5968774784
83670.118549422
83669.1183513388
83662.2733549286
83662.420848029
83654.2281063265
83654.8964423742
83647.344139657
83645.974106879
83642.0254916578
83643.3596259044
83639.4392019471
83639.1721762951
83637.5869349332
83638.0364419659
83636.4403882674
83633.3537701004
83626.8722321609
83628.8180286228
83619.5638287226
83620.1658905655
83608.213754635
83599.085513341
83603.7433834452
83606.2860962005
83604.6056491293
83603.0645609328
83604.424180901
83603.8265975133
83602.879152831
83602.7055541733
83601.7333392389
83601.164183353
83598.0147675709
83599.8431415593
83602.0515427948
83594.0078553231
83593.9426469358
83597.9298198539
83597.2825352885
83596.7286375263
83599.2623569377
83599.2324995834
83601.5195521887
83601.5172254904
83603.9339121027
83603.829348932
83605.8591520521
83606.1075433662
83603.2778927643
83603.1221804709
83604.3600463728
83604.5854525531
83604.7657012022
83604.5145903275
83604.8290638984
83605.1058693634
83606.9360092003
83606.6498375216
83611.9059955329
83611.7957486056
83621.3544626739
83622.2255829707
83628.9425181092
83629.2011975241
83631.6701053337
83631.4079562769
83642.1234458487
83642.6600795596
83643.6246680366
83643.0903661299
83656.1591544273
83656.8512117779
83673.393796226
83673.1589835432
83694.3972547938
83694.4798432128
83712.6217472793
83711.7447623127
83707.1188386321
83708.0503585273
83702.0649431702
83701.2386818436
83697.4061440166
83698.2846101281
83709.1595312518
83709.0440580143
83703.7311837621
83703.8458695296
83699.2478969299
83698.6333430574
83694.9775030725
83695.6832991915
83704.5124823405
83703.895175377
83701.0561552363
83701.6121574296
83697.7819267128
83695.4566299088
83693.1415897301
83696.6770380629
83704.6540216692
83705.126241138
83704.3079195999
83704.5534497172
83695.1574743443
83699.9108616637
83703.8167447971
83704.542718225
83716.1167822167
83710.0315719278
83708.0337079301
83708.6227700717
83711.8739827592
83710.5501164016
83714.6710077033
83714.2823318437
83707.0665834722
83710.0939958708
83707.6332550403
83700.4497789996
83702.7598314669
83707.8325742419
83705.688714998
83704.057423499
83701.4063807892
83698.3780416877
83701.5985392445
83690.6819675648
83707.2615775931
83700.971691893
83685.6452666498
83675.5568743294
83668.3475391449
83674.4322692519
83657.2646561346
83654.8412892069
83654.9348612748
83654.7793032763
83650.3837089178
83650.870998943
83638.7789062507
83638.1551744787
83636.8593161098
83638.5868181488
83637.2832393699
83635.4697434399
83633.5568640633
83632.7742019106
83636.7920184433
83631.1228563107
83631.2831196988
83635.8131068136
83627.9089154761
83627.1277782643
83620.9612568457
83605.2346760917
83611.6843554415
83614.6053453966
83610.1002165476
83599.4791350994
83603.8031256896
83606.220634125
83603.7995436313
83604.9275590755
83600.0399800253
83599.6023211584
83601.905595227
83602.8485263906
83598.9629439178
83598.9051535516
83598.8014836173
83598.4891859306
83596.4626789588
83596.6651298562
83594.2532941575
83590.6070366041
83594.0407010881
83594.6018286937
83596.6913281282
83596.6105736393
83598.6155442011
83598.6824472483
83600.9695031161
83600.9920260672
83597.7571227398
83598.1856930928
83601.1497015844
83600.8468060899
83602.1715230844
83602.3102226987
83602.6310263104
83602.5700973063
83603.2100474373
83602.747972878
83601.6166010843
83602.7967569152
83597.3448866733
83597.7702151388
83601.0926822921
83600.6677875522
83600.8642605053
83601.5411173222
83605.2592243869
83605.3642356097
83615.5944526776
83615.1081504617
83620.9359230537
83620.535996739
83625.7164351785
83625.9596842156
83635.9840562542
83635.2781061356
83639.3006242798
83639.8930902001
83654.0939611885
83653.3960450848
83655.9556037859
83656.6587380689
83674.8383686293
83674.6494045003
83699.1273981385
83698.9755122859
83723.3383155176
83722.7645384097
83718.2335520961
83719.1189247412
83736.625285475
83736.6127499674
83729.2672798301
83729.2781977353
83721.909947687
83721.8205103911
83715.2221685254
83715.2855537653
83728.5028717564
83728.889729313
83721.1231601288
83720.7044319354
83715.3407310967
83715.5134731523
83709.2304425578
83709.3642300547
83719.7887713363
83719.8087561747
83713.6044470086
83713.7728027444
83709.4683221834
83709.4771807505
83710.4544247183
83706.7671544692
83698.1504345302
83712.3889423927
83704.6195380651
83690.0277344175
83677.6615858984
83661.8255227308
83637.3458824412
83607.9514227229
83581.1662231252
83551.8328033674
83534.5436004074
83536.2373387388
83566.7824040566
83567.940354735
83584.5871155555
83581.8199433132
83594.188539013
83594.5547811299
83588.8841278149
83587.1515825251
83594.5778238357
83595.3720028638
83591.8854543592
83591.1068393741
83596.9106803535
83596.3904336804
83594.6002407259
83595.4643330239
83595.4768032584
83595.0377845793
83591.1762931232
83592.0456652307
83591.0526797052
83585.6801396927
83587.8264307691
83591.4748330333
83592.4931938345
83593.5202311036
83595.2171320827
83586.004402225
83591.9979740103
83593.275932388
83595.9506938819
83595.7310496246
83594.3508724773
83594.5455970799
83594.6016784761
83594.3695876964
83595.319808113
83594.9822275673
83594.399581959
83593.5311282799
83592.2677062788
83589.397493709
83592.6624555522
83591.4580299812
83589.8723924536
83588.3773784846
83600.8242827837
83595.5005817158
83592.9246839139
83596.3424053809
83597.4811274486
83599.6145649005
83597.5545188857
83601.5599179629
83602.2192151968
83613.150581686
83644.8009178984
83642.097918154
83605.3607922635
83582.5055847739
83556.3834528072
83568.8311990349
83586.1786725985
83590.1958088659
83585.361920918
83602.7244937108
83598.9562559858
83607.0255388336
83610.7408167739
83640.9811166641
83621.8089118259
83612.5104396519
83646.5432262673
83589.252898534
83592.2429701773
83584.5831778248
83578.5503791223
83569.9018294832
83585.2719087876
83584.2151164193
83559.6625820295
83573.0032165904
83585.756156839
83593.4918891728
83589.8241129225
83594.6903689981
83596.3796098764
83597.6044178794
83595.2101170556
83599.0239624498
83600.0213268792
83599.3080764845
83599.029837519
83595.7790725321
83596.9412903964
83595.1529987619
83594.2879409923
83571.3846765838
83585.7756448568
83593.2799180189
83602.9385186032
83601.9626085149
83587.7365651335
83594.7736895902
83606.770946404
83614.7680544678
83627.451938863
83614.4976315091
83613.5117634489
83614.4589426924
83612.8067145439
83608.7666588328
83609.7686446782
83616.2748851407
83615.6371171665
83623.1019228384
83624.4989724856
83629.3558082989
83628.2874009071
83639.0442946784
83640.0717416501
83649.3385510986
83648.7163945166
83666.5300334691
83666.8754172502
83672.7983182528
83672.4820426524
83698.6305681722
83698.4964393754
83728.2772694867
83728.0012218675
83725.9401311524
83726.3994044546
83748.9924775439
83749.4592217443
83744.1538641897
83743.8893146788
83764.5028799866
83765.3435350465
83755.5223802828
83754.6872554036
83745.8968411803
83746.4996018206
83736.8965694022
83736.3507774245
83745.1312173838
83746.2211595021
83751.5797736024
83751.7312162509
83746.5027045789
83746.3847753562
83741.1729894081
83741.3480172538
83736.6140049004
83736.4369199719
83732.9453160768
83733.0667375014
83729.7680224749
83729.6682122024
83726.8407073369
83726.9593046505
83722.7170416978
83722.8924639003
83722.7962725809
83722.2053072771
83726.184649838
83726.8828658992
83728.8062443564
83727.8220790179
83731.5211888865
83732.5420908155
83735.9797950845
83734.8622186556
83741.7871315363
83742.6524229745
83747.0676250182
83745.1644264608
83760.6876079171
83760.4573692695
83757.3861811772
83755.8260771044
83754.3931136546
83751.5206866763
83744.0904428649
83739.6420823042
83733.0540514547
83718.2507576553
83696.7698313879
83669.6420001921
83632.5243781275
83590.2804745283
83560.3302527546
83543.4423409827
83527.0545632232
83511.6642104757
83508.5100895059
83550.6691202074
83553.8882223623
83576.4712860919
83573.7963677929
83566.9284568289
83568.6867884958
83583.693310236
83582.0432278163
83579.2770476772
83579.9649127009
83589.2984786732
83589.3512031776
83587.9346234008
83588.2879000318
83588.5483225134
83586.8571327552
83585.2847125776
83589.1637756073
83591.5283333334
83589.0200999954
83586.4820332426
83588.9121533082
83591.0329520566
83591.7258406054
83585.2842405589
83592.7179331287
83603.3344657328
83632.7154529237
83583.8549542292
83596.3934579023
83599.6146062258
83574.4083375445
83650.6732469954
83627.0766842669
83625.7491876855
83646.3176858517
83633.7073266884
83628.4919691167
83621.7416534012
83621.2536137915
83616.7524353852
83617.8408783315
83622.0695527093
83621.0018739423
83631.5503661639
83632.488598695
83639.8245279997
83639.0931677125
83652.829082096
83653.5179402765
83671.7793240345
83671.9437595245
83691.1942554612
83690.944307491
83724.9944550766
83725.4777784162
83727.5946293619
83727.5481879561
83753.662038364
83754.8402781902
83754.1505012742
83753.2932271591
83778.4088170819
83779.8039821808
83773.0425474548
83771.9049978767
83787.4017832015
83788.6461608659
83796.8246900172
83797.0592907761
83791.3339741937
83791.1327628401
83784.7475429644
83785.0313537867
83778.6434284068
83778.3306309454
83774.1969962884
83774.4011598577
83768.2761035375
83768.1329310687
83761.7996278172
83762.0295706056
83756.0689881019
83755.8654259811
83764.8767540639
83765.0989311627
83760.1865048903
83760.0137987792
83753.9008691273
83754.1139663175
83749.289324601
83749.0815514443
83743.5506178462
83743.8620725337
83739.8023725669
83739.5529967804
83735.0244893756
83735.3232671349
83731.7119534939
83731.6115437088
83729.0379181982
83728.842707761
83732.3462139712
83732.5313256239
83728.4687827514
83728.3770230868
83722.0350152878
83722.1882801569
83719.3568198003
83720.0414387135
83718.3767149278
83717.3692829446
83716.7909554875
83717.1906147622
83715.5230449834
83718.4151370342
83724.0319546413
83721.9836005574
83715.8977514323
83715.7906497092
83699.1350899537
83706.4246679924
83718.7722151856
83719.2129112988
83715.6966359958
83714.0168515177
83702.439638903
83705.5453472611
83697.4611306789
83693.6899716562
83680.0823429801
83686.1057757961
83670.9358085485
83667.9224191783
83651.5970480434
83649.9075602926
83634.4507478243
83633.2479503499
83637.5246387385
83636.2532699465
83638.9479872419
83639.0565702127
83621.5606062397
83621.5347356522
83624.0035321038
83624.1034523941
83624.3396001143
83624.3810273883
83626.0052203825
83625.689515437
83620.1882283557
83622.4681433302
83634.4706899501
83627.6790999006
83622.358616914
83632.2818706536
83616.5964636013
83613.711306969
83622.7554597731
83624.2791451762
83619.6328317113
83613.5928041733
83609.0710153428
83620.2058767791
83589.5933056107
83594.6636879155
83603.3769773994
83606.5955163534
83601.0922829014
83595.3471882791
83589.4866150788
83584.3976815209
83578.8641940223
83579.2595426202
83578.5345677955
83582.2101826333
83584.4712865
83575.4278794101
83587.0836826902
83585.1287956582
83590.2173257935
83595.7209330412
83594.7242841418
83594.9076579583
83599.9000160381
83596.6821420745
83612.2174489562
83609.5551216419
83616.1498892968
83629.9439498682
83631.5246730906
83617.2226167923
83617.2979645428
83618.3326684155
83621.8895978488
83623.1960596535
83611.4094552523
83612.4607845358
83612.3357322541
83609.6209001345
83621.7427048753
83623.3227967969
83622.6144202993
83621.4160370891
83648.3624950849
83648.3702328286
83666.8691353928
83667.3753780169
83683.9371073359
83682.989776549
83702.7264966752
83703.5328544224
83715.1583699398
83714.3688588786
83738.5962404115
83740.5548695348
83751.3153301234
83749.8448944615
83775.4241953443
83777.2419078812
83781.5996649404
83779.8801926045
83800.8993234779
83802.3659280453
83811.1369154728
83811.28154947
83809.0578012123
83808.8258311414
83804.4470990647
83804.7678481193
83799.9806260941
83799.5936623457
83811.8259028401
83811.7895935847
83808.1142548514
83808.1982878134
83801.5630045013
83801.540468323
83796.0978565827
83796.0365541692
83789.0326084104
83789.1981186519
83784.2304697877
83784.1293014898
83777.1394479766
83777.2614983687
83771.7030067619
83771.5120002292
83779.7857424491
83779.9058975413
83773.1929930403
83772.9197569451
83767.6122423155
83767.8090986005
83761.5711762622
83761.2438972277
83756.0104942825
83756.2232629573
83750.5390967047
83750.1962057238
83745.542988823
83745.8633729891
83741.0838688709
83740.7045166356
83736.5537858136
83736.5515047308
83741.4930954326
83741.4522271598
83738.2155738768
83738.0731549402
83742.128537677
83742.2268654369
83738.3760810402
83738.4487821642
83732.5955318911
83732.0908986285
83727.6046125873
83728.9217677352
83727.8387019477
83727.0115138249
83726.9428081488
83726.5526785569
83733.1496769021
83732.0197128133
83733.2665650226
83734.7647737641
83737.2974751119
83736.160164519
83743.5898827744
83744.5934994667
83741.0336649813
83738.9710736377
83737.4674818869
83739.3994940923
83734.6242267979
83734.254293971
83728.2943666762
83728.0077989373
83723.3212030599
83723.512524753
83731.8379270212
83730.3765730007
83727.7450526832
83732.519340556
83725.8141862086
83721.5214670378
83710.995637037
83714.4249351229
83701.2071528024
83696.9973399811
83683.7281525137
83690.3451744139
83675.3159067473
83669.1722396451
83656.3643392885
83666.1955263785
83650.6616710669
83651.9986685106
83617.6875108819
83618.4811616936
83587.1881746766
83586.0462543805
83605.3015271748
83606.1563702166
83615.681310249
83615.8189633212
83601.1380385352
83600.9254797987
83606.9788218495
83608.7668766696
83613.6337985665
83613.1284892311
83614.9837096563
83615.564628858
83605.0301229028
83600.6558769854
83618.181182218
83614.2402853892
83606.7619961178
83617.1474761661
83580.1333470122
83594.3478796959
83580.0208954841
83574.0703302082
83560.6448252236
83557.5642831541
83538.2872561689
83544.6716112255
83495.4537180045
83498.7417401283
83464.1362708052
83462.5159420196
83438.0870308174
83437.5099737543
83406.0554217691
83412.2407701992
83487.532200099
83488.3550246288
83540.7457193764
83538.0507262381
83534.5918685298
83533.1598504826
83563.1886617406
83562.7413642559
83554.1699443911
83559.5034307621
83570.8276679158
83558.8637941586
83579.4359793205
83580.1791671138
83571.7403160727
83553.1260176333
83571.0175334759
83571.2566566709
83574.3988219921
83578.3699953433
83588.8261421248
83583.5865848851
83590.5760900739
83595.8754860426
83598.1813321188
83595.5262902416
83601.4306919808
83609.3836434844
83613.4712756092
83604.8086574936
83595.7027245963
83593.0935783913
83600.2516207435
83603.5982982694
83606.7714755055
83603.9453863645
83595.1391414094
83597.5946236128
83593.0269491861
83588.6365213877
83582.2926989285
83587.4966279478
83579.3874329415
83577.1378408668
83583.5011759519
83585.1213624371
83587.1024580211
83585.6679172529
83589.9930130225
83590.781487823
83600.7817637143
83599.3864294268
83605.3174676039
83606.3405507661
83627.6992333158
83627.5621935828
83645.256870279
83645.1156497747
83646.4669108416
83647.1490277667
83673.3134737945
83672.4530452721
83698.5085812912
83700.5291819887
83722.8217727147
83720.7859351392
83739.8517529138
83741.8015491049
83764.9925566212
83763.1696426461
83784.9781049551
83786.1679294045
83791.3159509558
83791.2394088852
83801.1546095924
83801.115983917
83805.8555615602
83806.0848466492
83808.6861558766
83808.4247674707
83820.5431031677
83820.0434098255
83822.1385689773
83822.5708146819
83820.0661522629
83819.8214889542
83817.012337263
83817.2274208284
83826.6943761956
83826.1010242813
83820.9478604646
83821.2925881849
83817.3310947838
83817.0550145956
83810.6698406818
83810.8210075783
83805.1004205211
83805.0447018902
83798.0781186027
83798.0183858154
83792.6977988191
83792.782251931
83785.8779786848
83785.6973133045
83793.3432171923
83793.3360311431
83787.1694143281
83787.1818952581
83780.4767065131
83780.5368625045
83774.7714988687
83774.757365826
83768.39798666
83768.5259171415
83762.6608685314
83762.6079602293
83756.6497135373
83756.8002075781
83751.4692216347
83751.2887736325
83745.9413890928
83746.3265310654
83751.8217932088
83751.543477595
83746.6892723125
83746.6306599356
83751.9842596771
83751.9618153065
83748.4540164504
83748.2769353583
83752.4674825881
83752.5674585414
83748.6105873637
83748.6605776994
83742.512627479
83741.9895097565
83750.2003279458
83750.7542864476
83757.6972152788
83757.2284434195
83750.002973472
83750.9548280336
83746.7528894473
83744.4529889812
83742.8667666031
83745.1253625372
83740.1353600601
83739.1498375556
83734.6107106624
83734.4191587751
83728.9262599895
83729.6138610053
83718.9435081807
83719.1466365027
83713.3785647065
83717.9133074531
83713.4124997848
83706.4074319242
83708.2073460551
83707.3525225848
83696.1150558713
83695.120850493
83680.9520351813
83690.052946381
83668.0823919352
83668.9851104858
83669.7386188849
83668.6735456141
83651.6727510138
83661.7451532314
83637.4566718532
83634.3307294242
83595.1943388466
83596.1022080019
83557.2207682713
83558.9988540018
83533.4008276558
83530.7169583992
83562.4747612929
83563.6509009638
83586.1650829639
83585.8183507342
83561.8800689383
83562.6709308853
83584.1729613662
83582.5729708158
83592.6832657403
83587.3218813959
83602.9174125422
83601.8377735954
83592.4364860587
83594.888930301
83576.5219253267
83581.2546826736
83571.659438928
83579.8118111413
83556.7021116799
83552.6498474064
83520.3404898331
83517.4279851325
83494.8300300209
83492.347631478
83471.1889879083
83475.4873439161
83420.3088406089
83422.423059457
83378.776366134
83379.9304978512
83354.4101229484
83345.108869207
83313.3570461377
83330.423493487
83323.5394578584
83304.5916187522
83365.6246422859
83362.4277410818
83464.4647806304
83465.881324132
83469.8510417815
83464.168674895
83456.0315614678
83460.4269667397
83503.2628182767
83505.4141973201
83546.5004427416
83536.0343504878
83543.8991758089
83541.9901489354
83558.7804762844
83550.4036418056
83558.8531365511
83558.5312950516
83557.1798426545
83552.4426833579
83541.5890495805
83548.1207483216
83545.8318844266
83547.6575406278
83559.3861617758
83558.9690768762
83573.9642822274
83571.1648114738
83577.8681668613
83579.2731568184
83591.2316933347
83587.6038537119
83583.9955774858
83570.2325962116
83557.949828986
83571.8322185771
83573.262838892
83573.4213317189
83563.0736395126
83561.9410800814
83565.0783219912
83565.0637591764
83567.874302649
83568.3270707519
83571.139410934
83570.091303888
83581.4632230963
83582.1838415682
83597.5758734899
83597.3117919286
83620.9871853735
83620.9180850148
83612.7387767322
83612.8596280072
83644.9084774127
83644.5006163468
83676.5768735428
83677.6029791803
83713.3407079246
83711.7974313983
83726.4897739492
83726.3135874424
83722.6134762201
83722.4337993844
83744.0993417039
83744.5886860084
83760.8687178055
83760.6662071298
83777.6483199575
83777.8808702322
83783.1903810683
83781.5982406313
83796.139591708
83797.3124212485
83810.1240623135
83809.018031146
83816.0606924414
83816.6982587582
83822.9541703627
83821.1022005262
83827.1169700384
83828.5453138205
83831.4417924814
83830.3771375644
83828.7499565079
83829.5197598815
83834.0684525878
83832.9729282232
83831.0214396682
83831.884832549
83827.2875502739
83826.7036001336
83823.0958532626
83823.5736540332
83817.5480358407
83817.2541284323
83811.878228595
83812.1237562725
83805.5396893291
83805.4146092766
83799.9775889281
83800.0717200417
83806.1872791102
83806.0174689559
83799.7999418235
83799.8780250485
83793.9259953475
83793.8589192131
83787.4759627205
83787.4844809839
83781.4774209733
83781.4922460883
83775.1666013943
83775.1078413353
83769.0404573868
83769.1058322295
83763.0909956755
83762.9592438015
83757.2440468771
83757.363939481
83763.1205972109
83762.976544903
83756.961287374
83757.2931450307
83762.7271536524
83762.4857215614
83757.3213153172
83757.2321233425
83762.419165575
83762.4141464168
83758.6507771272
83758.3917237126
83762.1807194285
83762.3407145753
83757.8597679729
83757.6974168684
83765.4813929446
83765.8714260013
83772.1844269839
83771.5769653916
83763.1308905079
83762.7517123193
83754.8350506026
83755.7934586759
83751.0959518621
83748.7537377519
83746.9574586861
83749.3116771613
83744.0856515716
83742.6210075257
83737.1221920611
83737.6588595713
83731.9358991145
83731.9571308985
83724.4799800152
83723.2700208743
83714.6621313542
83716.430967319
83704.4802065579
83705.0262680053
83692.9865274978
83690.7491798233
83695.3499717694
83693.6305253177
83681.9621512239
83682.4161441134
83680.5216078338
83681.4396612297
83678.5521004178
83677.6779992747
83679.6042092683
83677.054400189
83661.6534705701
83667.309753277
83644.3670866059
83649.3302959804
83613.3254654642
83610.839505088
83564.2991228046
83562.9281855412
83517.2363830141
83520.8986569571
83493.8389360236
83489.0543053178
83453.6046962724
83458.0050125971
83500.517812622
83498.5054419812
83533.8730902202
83534.8393053376
83508.0247826346
83506.9143024555
83536.1638690035
83536.7782760925
83566.8668035586
83563.6897854706
83580.8349850954
83586.1421377488
83574.5671483826
83560.7021998809
83531.7920245512
83487.8692973535
83442.5599735302
83390.6397943119
83346.9090961118
83323.6475786161
83321.6995839977
83305.3552843741
83303.0940366342
83359.6466893342
83357.4918919958
83419.53334116
83417.1942081858
83407.1410488818
83406.0545170816
83399.2164223477
83400.1701516306
83393.0444244455
83391.9764620826
83452.6268994771
83454.5171279854
83502.9020208816
83503.3773478283
83542.3765185297
83536.9675766074
83536.394376653
83537.3701888745
83506.3408072703
83503.7710151246
83457.152037537
83456.1989932093
83453.6980977989
83455.4667376568
83500.325509889
83501.5330243028
83540.6139781384
83533.3838289165
83533.6578535249
83535.1807435472
83510.1618503658
83516.3285272917
83536.4564490305
83537.3073876319
83505.4795885869
83466.2120765848
83467.8577325775
83429.3029503918
83435.6446864754
83370.1266094236
83372.9390274055
83415.8085096279
83353.1741685099
83347.0874914468
83347.543634091
83332.8394465889
83331.1294911878
83315.1625046951
83317.565746968
83307.6205001014
83306.5385093877
83315.7059110949
83316.1067547641
83313.6832192584
83310.7194411007
83309.733768988
83315.5566083843
83310.7946870733
83307.6918692343
83307.1093340725
83312.9289242571
83287.4864850875
83296.3346639907
83296.7303845686
83284.3030726817
83294.4353868505
83299.1419798335
83304.9576010772
83304.0163886503
83312.3092823288
83312.4321158977
83324.9314108963
83325.0318667549
83329.0137508947
83333.2366515895
83334.5677593309
83330.6863947321
83333.3887131052
83335.2699873025
83365.3028255318
83366.0085087636
83374.9125100503
83374.5018329381
83385.8862004416
83386.0678755606
83400.9665504031
83400.4292677021
83416.4362525596
83417.2042446157
83433.9535438934
83432.9250387096
83448.4455595321
83449.662042968
83463.7135221555
83462.4133500961
83473.6280568296
83474.7982714689
83484.3693748319
83483.676889204
83492.6466479404
83492.4428496492
83505.6431126176
83506.6555317477
83528.0274597057
83526.0426768731
83565.5475397175
83567.7207946636
83627.0562027754
83626.2100015396
83696.2229477869
83695.5944549813
83753.8508724647
83755.5195739558
83788.4051027797
83786.5966304117
83802.4977915763
83804.0372525022
83811.3751093589
83809.8918511688
83814.9818638782
83816.5040502707
83819.0345069002
83817.6726274685
83819.9885094101
83821.1629614773
83820.9115884552
83819.960982642
83819.1257873113
83819.9349276792
83817.0800600382
83816.5660610502
83813.6327115662
83814.0032840966
83809.4969503352
83809.197179111
83804.442983503
83804.6547559636
83799.0629679991
83798.9731996425
83793.2860609217
83793.3328079655
83787.1784417467
83787.156770062
83780.9957995296
83780.9579852776
83774.7011427863
83774.7865736542
83768.7052377083
83768.6251380293
83773.99686456
83774.0630259286
83767.9573655657
83767.6799343597
83772.854361452
83773.0404239093
83767.3271648525
83767.4563719098
83772.1353486725
83772.0851901367
83767.680442742
83768.003187029
83771.0819645177
83770.8642061513
83775.669230534
83776.0142522382
83778.1875369608
83777.9304794515
83781.6380667016
83781.9934283012
83782.863344328
83782.5471061368
83775.2585104125
83776.1463875872
83766.2296943854
83766.4391685345
83758.7732187685
83757.9629771811
83751.4992804254
83753.2877473389
83750.8850527957
83749.4474143296
83745.4521002972
83746.5810120771
83739.8530694119
83739.4672783441
83733.5961531186
83733.969550355
83725.0310705635
83725.3547007273
83714.5481635746
83714.4078537333
83704.7742904995
83703.682924968
83691.1124967165
83692.235019693
83690.643656159
83690.6088593211
83686.6789624842
83685.724031637
83669.2890221934
83671.2167098398
83664.4779717362
83660.7796749473
83645.7209507576
83649.2923381578
83646.3451143605
83647.1267620843
83626.1904967732
83623.0413839555
83594.9959137956
83601.3711722345
83561.1390962873
83555.1725430238
83518.360266947
83511.2888744835
83460.6203163643
83467.1202862632
83443.354534625
83435.6583229918
83399.5216197356
83407.1629791063
83381.2816292835
83375.6742694541
83426.0961320317
83429.7455795025
83471.2202048464
83469.2221006316
83451.916787419
83450.6024453467
83417.0850116609
83411.7402233168
83386.6475671451
83392.9381951095
83329.3857971703