/*--------------------------------*- C++ -*----------------------------------*\
| =========                 |                                                 |
| \\      /  F ield         | OpenFOAM: The Open Source CFD Toolbox           |
|  \\    /   O peration     | Version:  2312                                  |
|   \\  /    A nd           | Website:  www.openfoam.com                      |
|    \\/     M anipulation  |                                                 |
\*---------------------------------------------------------------------------*/
FoamFile
{
    version     2.0;
    format      ascii;
    arch        "LSB;label=32;scalar=64";
    class       volScalarField;
    location    "100";
    object      k;
}
// * * * * * * * * * * * * * * * * * * * * * * * * * * * * * * * * * * * * * //

dimensions      [0 2 -2 0 0 0 0];

internalField   nonuniform List<scalar> 
162506
(
0.0150874392954282
0.0150914146656809
0.0162984839858354
0.0164061588666182
0.0167317967040819
0.0165728465194443
0.0151721389122941
0.0151278937441504
0.0164311376645503
0.0158106851446007
0.0153535826306019
0.0150314499992638
0.0150685532385933
0.0150490519645122
0.0150132793353525
0.0150111129494009
0.0153245830357452
0.015735145462737
0.0150449003083663
0.0150920089685864
0.0150561205605798
0.0153412033507852
0.0157499527474197
0.0158004577088608
0.0153758461770334
0.0153291032510465
0.0158118070433469
0.0150103036635757
0.0157516780171135
0.0153092747866069
0.0150027635128707
0.0150029873872449
0.0150132949255062
0.0150007597445756
0.014998534585159
0.014998073450571
0.0153027721207401
0.0157509030130119
0.0150006778165104
0.0150757623504173
0.0162854807515421
0.0162868558982386
0.0150717891406769
0.0151160597265512
0.0169421933150331
0.0169512069729589
0.0151187343078019
0.0152570885668573
0.0173879885825267
0.0177210780189103
0.0171052343039939
0.0178912244542416
0.0188732882984823
0.0183098485078125
0.0153536679187194
0.0153030184421784
0.0179966000304637
0.017159210866243
0.0152291552507871
0.0153346147662867
0.0172187173380463
0.016479437274823
0.0151769328027815
0.0150524441821616
0.0150163651853642
0.015348405779316
0.0158681896038638
0.0158296425017608
0.0153008631889054
0.0150080539873852
0.0150285270502118
0.0150161678465896
0.0150051485829989
0.0150106224065382
0.0150288341032607
0.0150320623542009
0.0150755665022229
0.0150740628603161
0.0151496115043332
0.0164186908402868
0.0164364996761101
0.0150885505275861
0.01501331980043
0.015002910608914
0.0152981225923725
0.0158259490138629
0.0159353882310206
0.0153536403165824
0.0150018581568516
0.0150105540508178
0.0150023435073316
0.0150017035329819
0.0150002030609351
0.0150016870084584
0.0150056224478502
0.0150010588995366
0.0149989950543425
0.0149990753834854
0.0149996025280931
0.0149992890983674
0.0149990349047987
0.0150012866149902
0.0150010922355873
0.0157505482991939
0.015302601644074
0.0149986581085796
0.015003382829538
0.015308819133062
0.0157507506629949
0.0150109382158332
0.0150707158399867
0.0162848844516859
0.016284643602835
0.0150740115908182
0.0151145809055396
0.0169491039156552
0.016950744236163
0.0151214144061029
0.015161003894451
0.0177427101571893
0.0177086263337118
0.0151609823248942
0.0151559886544684
0.01768945606172
0.0185155193555289
0.015477872269496
0.0157733500173805
0.0193271416324652
0.020135763842479
0.0187405059635851
0.0197544594563285
0.0212819495888753
0.0206037040184167
0.0166404369106125
0.0160702941238633
0.0201732004751461
0.018944751822778
0.0155807350198854
0.0154594718571539
0.0192316988373864
0.0181480300931306
0.0153564205183488
0.0153190902310924
0.0180739317295748
0.0171542757951002
0.0152749487471504
0.0151437960339207
0.0171857328744407
0.0174783192027308
0.0153348748263167
0.0151510209760786
0.0166207394559474
0.0166981203501448
0.0151203409853444
0.015008063907877
0.0150015657449375
0.0153820115128695
0.0159814354904745
0.0159210454192658
0.0153476059702536
0.0149991351456734
0.0150044531092613
0.014999995299767
0.0149998052867714
0.0149990215872997
0.0149973594051285
0.0149981425974845
0.0149993017032608
0.0150004439506648
0.0150013952419677
0.0150060244293991
0.0150015124025633
0.0150035954485651
0.0150140263794213
0.0150497370079612
0.0150141279791251
0.0150119427751247
0.0153238174899999
0.0157333458767823
0.0150455771169973
0.0150882413696851
0.0162948722983904
0.0169447251860571
0.0151167675094097
0.0151124845845211
0.0169381701390756
0.0177001664830325
0.0151561418468713
0.0151529899136176
0.0177391703959586
0.0186638066936876
0.0153746665179713
0.0153853581534914
0.0186716692251038
0.0185900492545799
0.0154163780285749
0.0160096464842082
0.0197382923905355
0.0195753947251959
0.0160848471569234
0.01627921434283
0.0199770577536233
0.0209296158507322
0.0172502117434336
0.0174643271528617
0.0213908505555823
0.0215300326208447
0.017273444164318
0.0165756701081518
0.0205513558073013
0.021411546275176
0.016762291923548
0.0173601041234842
0.0228683273689363
0.0248021266495851
0.0179862415936993
0.0186084767846666
0.024689006555722
0.0251688333695839
0.0290172105021041
0.0266330375009759
0.0192643682531424
0.0190596880249727
0.0264466710967314
0.0258199416947786
0.0188990979180807
0.018610660130298
0.0233790161389713
0.0263198774608002
0.0251224679706645
0.0234564450476287
0.0178165322110374
0.0218783320519617
0.0241518035937518
0.0228177612014766
0.0208574517744453
0.0173614013869762
0.0224802951910682
0.0223283094175144
0.017029913117699
0.0162415123749824
0.022060406783101
0.0205338502569109
0.015726170588653
0.015475118498254
0.0204120710778267
0.0191503058656011
0.0153652532818139
0.0152162286504901
0.0191478947094328
0.0180896350116249
0.0151790901563587
0.015400133110506
0.0185889652589063
0.0186843020204338
0.0154149000962192
0.0153323122748829
0.01756594602781
0.0173564380384598
0.0151140788500791
0.0150459135348381
0.0165890936302319
0.0165844081421853
0.0150512491151163
0.0150065874298253
0.0159179873577224
0.0153470335694129
0.0150000935876676
0.0150001588904954
0.0150015717497006
0.0150065635783374
0.0150010115753303
0.0150022385411966
0.0150047773107679
0.0159757599411924
0.0153804536010208
0.0153517581956937
0.015000418229298
0.0150096513652561
0.0159306626989618
0.0166115374250106
0.0151527089766957
0.0150890376388532
0.0164278972728465
0.0164136156517622
0.0151510002638117
0.0150280533512245
0.0150086080938524
0.015299812080049
0.0158276028548769
0.0158213283321283
0.0152968923454327
0.0150033704135219
0.0150136373755505
0.0158641268608698
0.0150517632583959
0.0150157881946175
0.0153471398074988
0.0153527039811919
0.0150309246427989
0.0150675201551045
0.0157898277955081
0.0164049935233393
0.0151417078094655
0.0152427103125021
0.0164323699656362
0.016631891564742
0.0164490102061007
0.0157543626067036
0.0153310145054155
0.0150325459269081
0.0150695412038394
0.015762125802998
0.0153310696368589
0.0153751731154788
0.0157680018428334
0.0172587878393903
0.0176110778379124
0.0171293912746057
0.0153430329968791
0.0152482999694315
0.0171287196551149
0.017957992599698
0.0153269007079951
0.0154393978231372
0.0179093296684149
0.0187464002374458
0.0181667109864734
0.0192068024973863
0.0199514353594535
0.0187478962219603
0.015905220110008
0.0154943000637634
0.0184965274452077
0.0185731667378953
0.0154065112483395
0.0159949391917412
0.0196867664645418
0.0198426365548367
0.0159390345994812
0.0159497621057333
0.0198638166502621
0.0217736007892963
0.0168021321094576
0.0174228221673265
0.0232505084045144
0.0255987989346329
0.0178690072417622
0.0177958189999984
0.0249951445581512
0.02774552089909
0.0192026733123346
0.0193832880183956
0.0272006376846044
0.0265269595996884
0.0195657837056361
0.01934307393361
0.0284010204500916
0.0325053359983508
0.0274064033953932
0.0297492254379543
0.035778133519889
0.0303552306035243
0.0198065705347163
0.0193355714164403
0.029875095563636
0.0279420818343838
0.0192186150057457
0.0190450680505428
0.0267175348956708
0.0253638157531383
0.0185728375701498
0.0180213270798221
0.023629170974509
0.0232634009219399
0.0173841662237148
0.0172257255867257
0.0244848897352849
0.023952973765223
0.0168208293321705
0.0158353499447953
0.0219187374613835
0.0218218772920191
0.0155144430971485
0.0152822183184405
0.0203789841178368
0.021550055667947
0.0155261760875538
0.0154627804713309
0.0199338508802385
0.0200328292948087
0.015488885200702
0.015222152872306
0.0193160262112296
0.0182610170129942
0.0151698081855178
0.0151753064315163
0.0182537621051149
0.0173510486268478
0.0151195078724677
0.0153352699406687
0.0175537170342433
0.0166888414744686
0.0151252762649748
0.0150475510800632
0.0150072256211853
0.0150113921900018
0.0150051876287877
0.0150040751642597
0.015003932672629
0.0150020953682017
0.0150443803969532
0.0150230523219978
0.0150544857878879
0.0153358150616582
0.0174643447242632
0.0171728941187873
0.0151410966404127
0.0152759563955322
0.0171447697197488
0.0172068348064668
0.0153372586731521
0.0153621932563784
0.0181292464001109
0.0192001070320696
0.0154765892283377
0.0156204644149154
0.0189001077867928
0.0201120047829299
0.016150385605807
0.0167160454359214
0.0197598135241021
0.0210513245724916
0.0204362407923456
0.0222383905470343
0.0225476098941472
0.0208759259187514
0.0174712720798426
0.0173139882855742
0.0208576631207696
0.0199129240553656
0.0162679119535882
0.0165700619936934
0.0204830684985532
0.0213622888100814
0.0173857745054439
0.0175367453573654
0.0212831495361073
0.0218425658424956
0.0178844453211377
0.023364248748077
0.023826104470371
0.0259617713874046
0.0233869739154693
0.0188737666200013
0.0249826364582751
0.0259602644040073
0.0193761590582729
0.0197054907745132
0.0266005265182158
0.0262510524083907
0.0277920179997203
0.0250353276096551
0.0199081380223124
0.0191457223945416
0.0244451714957395
0.0246515370055186
0.0184994339737895
0.0180754216985431
0.0248513193383115
0.0255007333885666
0.0179950135752583
0.017888090202269
0.0256346284321659
0.0257129191806638
0.0178804563238825
0.0194864758265489
0.0287980070293905
0.0285724293277409
0.019444194037004
0.0207625043939278
0.0306569496376802
0.0297628811928222
0.0204702881297069
0.0203402609575211
0.0296195952242106
0.0288382111064666
0.0203697455924246
0.0199491304040711
0.0284548527246883
0.0294755812571432
0.0204645225947491
0.0211965297325203
0.0333774532295111
0.0325853430606473
0.0397641351898047
0.032380220067519
0.0201665017975525
0.0194870888654589
0.0318906987199743
0.0312190802001221
0.0192944674796553
0.0189957522245091
0.029460155778667
0.0273261130076893
0.0188781788427913
0.017984329846597
0.0261949906117684
0.0248832942145383
0.0176795481462446
0.016814832677488
0.0160757511819015
0.0154547129398922
0.0155065290813903
0.015702696138804
0.0164474149738272
0.0240437012878051
0.0256180876319239
0.0165372033696871
0.0164870222662855
0.025293500870259
0.0248923419182081
0.0166461208668718
0.0166029718441629
0.0246069069756799
0.025296528391692
0.0175140226792615
0.0174569919897494
0.0255173317261797
0.0259253273351501
0.0174762007434232
0.0180521236716997
0.0264803018665238
0.026011634177581
0.0181222147663427
0.0173174036659734
0.0246176664782176
0.0167215660865457
0.0185781902102983
0.02769796177555
0.0295078738163143
0.0195215699185677
0.0190341958972092
0.0285414699791258
0.0273940061830719
0.0177891386205711
0.0167509818194658
0.0282861448987021
0.0307779552580076
0.0163277054053048
0.0162203107969919
0.0281160842400453
0.0256233174634335
0.0160803391507528
0.0156152689877639
0.023464723395834
0.0235577380842611
0.0156434557921407
0.0155556127328222
0.0216480802734372
0.0205351801120879
0.015273313130414
0.015278565266164
0.0205195773334386
0.0193056264385879
0.015227799489099
0.0154878416919379
0.0199975170575428
0.0186644744321935
0.0154168552960785
0.0153956888314964
0.0185668811140865
0.0180698057982945
0.0151682973733089
0.015317965735986
0.0180564565063127
0.0191197181059044
0.0153593122414637
0.0154570319788493
0.020361661018411
0.0204823926900113
0.0158014210752613
0.0163480831606636
0.0220343072377944
0.0222552538145536
0.0171528641950043
0.0181997685993629
0.0236995081272869
0.0251537260471231
0.0190978975339123
0.0196246740666921
0.0275208402066813
0.0282756174841787
0.0199962698755421
0.0198440349620936
0.027162580265664
0.0282947051454147
0.020800611262181
0.02083096676151
0.0289297811017371
0.0291538419598563
0.0202660668153433
0.0207803048669705
0.0308087209850961
0.0320608456075391
0.0371274339973684
0.03235923678513
0.0225355078231516
0.0228276637039797
0.0320685349878996
0.0307449943839492
0.0223632608507217
0.0213945739115105
0.0291864746629439
0.0332562181310862
0.0296508750345646
0.0282652533940712
0.0308634310770037
0.0274105202711203
0.0213044616610385
0.0208228321052763
0.0272709469170813
0.0273268692050566
0.0200899590887044
0.0195536648329816
0.0277487232107597
0.0285471896284047
0.0195782230726494
0.0195002682897548
0.0287414635463092
0.0309662030072298
0.0209351826133101
0.0209641931352784
0.0310391319442258
0.0309657207135104
0.0208592907497751
0.0208570339140375
0.0307315381379834
0.0339680409632852
0.0228361345357676
0.0226964473843819
0.0338476550731126
0.0328968786819457
0.0223034702953789
0.0220351320006343
0.0325195029396936
0.0313481544318543
0.0214787057581991
0.0205917881200765
0.0304859436115847
0.0325578842144288
0.0211762122951128
0.0214217032898314
0.035219816452629
0.0380389532796849
0.021662913808669
0.0215266957883803
0.0383309350011658
0.0356893928314934
0.0438688512550097
0.0344388565582469
0.0204865482054916
0.0196454742009689
0.0340497176843563
0.0338507535090995
0.0194468696314516
0.0190927928608995
0.0317727979020881
0.0301323252811113
0.0184924963541193
0.018207425509177
0.0281044812604495
0.0171918716972767
0.016498208197762
0.0162095765275998
0.0163004430418214
0.0157440251499382
0.0156690689140093
0.0156029957187381
0.0155609600598243
0.0153308326244341
0.0152789044631197
0.0155799155804382
0.0250890267039963
0.0234637010137582
0.0154396384034669
0.0153376633311707
0.021927341096743
0.0219030179253291
0.0153352417017104
0.0156239946048391
0.0234458971504244
0.0215816500796566
0.0155561675556415
0.0154936625483967
0.0214793515912735
0.0203315535035632
0.0152521946397691
0.0155953101394232
0.0217355649042753
0.0218274391793104
0.0159747238289061
0.0170586348563003
0.0240196410502091
0.0245795878391951
0.0176644359696045
0.0174957433709577
0.0232196575604401
0.0250054741769027
0.0179219066020568
0.0187673022892414
0.0257189432171946
0.0283890068067408
0.0189358476042777
0.0200886252261782
0.0311467410901361
0.032097244346463
0.0206819140941088
0.0228934633371462
0.0349048588568109
0.0399966082164565
0.0334750136417647
0.0353296238846047
0.0444311378402323
0.0387635095879152
0.0232299140292787
0.0240067209891295
0.0387747440252515
0.0359865083128027
0.0247596783649466
0.0245329990710473
0.0357376899464565
0.0371873219430445
0.0247787394874481
0.025532511699622
0.0378665796321989
0.0380522343632044
0.0252097567947932
0.0254535486162322
0.0384566314674504
0.0400802865459049
0.0257873163626224
0.0257955207279583
0.0403145273400682
0.040938893295336
0.0258437016988834
0.0258284755735138
0.0408694631884877
0.0406286067206014
0.0258258423197766
0.0256639340098399
0.0402761908361023
0.0395198717453442
0.0254709858060765
0.0251924276160579
0.039194097746237
0.0385885343814696
0.0249087316499545
0.0237761706457988
0.0375446386562117
0.0347234538243781
0.0223618851846713
0.0227100228815299
0.0390320442902355
0.043992242812724
0.0230668276448777
0.0234963425446654
0.0506544446106465
0.0412011060264472
0.0218433869582373
0.0221231517840201
0.0451747783504919
0.044373087645255
0.0218434127947899
0.0208023292145172
0.0367237335478586
0.0487802209848738
0.0393434687113244
0.0431217921224738
0.0537838088669849
0.0395132579550023
0.0211086815708724
0.0201013115309595
0.0390714448304676
0.0364291124527048
0.0197942653546256
0.019649907739283
0.0367487617701541
0.0343364181296801
0.019216966152293
0.0186257496234457
0.0324396016717314
0.0317550575197869
0.0192406560598119
0.0190262270525876
0.0294916304545612
0.0171760785923874
0.0174017569006381
0.0168668372848697
0.0157775516135195
0.0158369052533275
0.0156466425453544
0.0160442321339186
0.0309682798373923
0.0282539581185465
0.0158915335248673
0.0157694085381295
0.0257856491246742
0.0153872909004028
0.0151977743104745
0.0151920767152234
0.0154384185583598
0.0233954622819426
0.0255818013928141
0.0157147529691996
0.0156975299458116
0.0255070373646991
0.0234122095804646
0.0159673327387694
0.0164563575492368
0.0259271177295217
0.0251553032291764
0.0172714734599166
0.0178684092666944
0.0256114829185477
0.0261988527724364
0.0185439986953096
0.0181115722261781
0.0262498381151156
0.0269926167202884
0.0182040510157346
0.0184368347191565
0.0291537282140947
0.0310291155060111
0.0191848139038383
0.0204280043371742
0.0348796865390332
0.0332491505077061
0.0208243651219089
0.0209608207205751
0.0354531174084699
0.0375537982670285
0.0484529289415256
0.0426687234344675
0.0235230827712369
0.0243918827965202
0.0436403523574227
0.0412244744120573
0.0259742942219615
0.0266343792401577
0.0417092485056697
0.0449887776212708
0.0267307998729438
0.0267424283927441
0.0462913982999083
0.0467058812632082
0.0268736560706728
0.0273815104763445
0.0487545473696131
0.0493153202986485
0.0271643398954216
0.0274797918961572
0.0506529776670116
0.0512054956762171
0.0276223469524262
0.0280154669622708
0.0527669275083514
0.0545551309250562
0.0281970996088507
0.0282439677837044
0.0552708969400656
0.0553767760383755
0.0280931064231691
0.0283766680554268
0.0559220997150809
0.0570605187547578
0.0283756550534599
0.0282889416803865
0.0571074486945085
0.0570423843314213
0.0283473564111972
0.0283538316325285
0.0567273556026276
0.0563015524475518
0.0284767636615955
0.0281921590704737
0.0555058401314125
0.0553349056013884
0.0282125799284977
0.0280683779786301
0.0542578451157714
0.053299321869656
0.0280138298749735
0.0276520793180101
0.0518466450869796
0.0513133864260081
0.0274760025462104
0.0271043162259078
0.049981347086315
0.0491220309534098
0.0269085806593926
0.0262927071671698
0.0473399219279585
0.0471976336245881
0.0260960770943771
0.0259801208963302
0.0417938826782369
0.0432875880856979
0.0265969168245446
0.0267589756366548
0.0436502778193837
0.0442665768463008
0.027105597329659
0.0271971961047287
0.0442772735860119
0.045094031486898
0.0275635467499176
0.02758640017609
0.04558847594957
0.0462573809082026
0.0277807276100739
0.0277249431296891
0.0462860711674821
0.0467638224404169
0.0279632063635388
0.0278608675649602
0.0469193066907106
0.0471729017412162
0.0278780400902151
0.0278454655238677
0.0471632511799201
0.0471018993879714
0.0278828696366204
0.0278478826352252
0.0463687277414831
0.0460579369655994
0.0276570948476382
0.0278167314514881
0.046044486769788
0.0455315910726662
0.0277119263603965
0.0274977305106825
0.0440594698439334
0.0431912862743587
0.027125932274024
0.0270630797481826
0.043013996456163
0.0423918281109885
0.0267656084993961
0.0270904143103025
0.0422981883958663
0.0409211518689549
0.0265869454142425
0.026829227416626
0.0228697087957335
0.0204856322281114
0.017915501261662
0.0173716926846126
0.0166268437787384
0.0164767353030042
0.015905622505754
0.0157885282613899
0.0157549764106345
0.0154966705841929
0.01541871038338
0.0158626871964365
0.0279417433637311
0.0281000604710286
0.0159504471015729
0.0161474913978644
0.03095556003931
0.0286623738104561
0.0167900100190702
0.0173490961677602
0.0284468031918556
0.0268331269772097
0.0172002882885185
0.0182360913920551
0.0278493426975261
0.0285532581999724
0.0189509272324874
0.0184210046133963
0.028336126697309
0.0305934461379172
0.0186098111416685
0.0186839176727889
0.0313473970292101
0.0338768791869106
0.0195256267205793
0.021071797735721
0.0392687278601089
0.0374836705855812
0.0214952836159332
0.0246674716855294
0.0403064519455778
0.0534874757176539
0.0468993295116324
0.0496517623765817
0.0248383995296469
0.0264265633629956
0.0481675028443831
0.0523084825935596
0.0271239681038994
0.0281866921339375
0.055697398592156
0.0584062970968486
0.0282803689150202
0.0282660406238007
0.0620281098470138
0.0630517711243412
0.0275950514777768
0.0282443138728429
0.0657092999337069
0.0668157432424114
0.0283299347022339
0.0288126942613777
0.0692992247569824
0.0707929046507589
0.0292666233215929
0.0297854207317638
0.0729576748769527
0.074484701923907
0.0300789142750657
0.030277653693101
0.0748467948925109
0.0751005161707896
0.03035357040961
0.0308216420813118
0.0761303272402773
0.0779877203374332
0.0307863467620706
0.0307027323797597
0.0778401535499598
0.0775946849299878
0.030798936237915
0.0307038340572401
0.0773412044410779
0.0766183260986319
0.0307699235578416
0.0303602265760416
0.0756323631412218
0.0754978312736842
0.0300975553823198
0.0297866371337784
0.0746742660641149
0.0733895259907979
0.0295213981661907
0.0290785452733246
0.0711819623207792
0.0690572643893018
0.0286303770614116
0.0280843569863647
0.0665443994418087
0.0658533862711577
0.0277227355402707
0.02700993122974
0.0645732753070837
0.05689800968275
0.0259487191997783
0.0256952635041285
0.0509833901726207
0.0454984395183152
0.0242414223905616
0.0247483110787032
0.0549084496298699
0.0675928617959015
0.0252648401577414
0.0258340144081324
0.0868780623794562
0.0592522559671444
0.0239201647074452
0.0243445130127115
0.0714695225202838
0.0490846201638919
0.0222730040133351
0.0225124935951007
0.0549300734890655
0.0521312492556056
0.0221045146754155
0.0223520670211997
0.0618769717647248
0.0483994839949128
0.0598665086082506
0.0429807065810016
0.0233158747845766
0.0218717639844499
0.0419924767323462
0.043335397185993
0.0215385162799587
0.0203287525449325
0.0412072973251402
0.0373012660788291
0.0193478533608144
0.0187394311134892
0.0350405204498686
0.0342972065754202
0.0193173565596948
0.0197849428789235
0.035088948366277
0.0321346632356554
0.0197584069817015
0.0191694548606725
0.0310836192044099
0.0289879201237704
0.0176056222861265
0.0176610858899139
0.0306980616736799
0.0314599775445809
0.0172939026483419
0.0174468361592297
0.0342353638448143
0.03423866998326
0.0162307148051319
0.0158445671244982
0.028899291638464
0.026820678781331
0.0157265580327384
0.0157272819313071
0.02667641812736
0.0249724694452794
0.0155786250291541
0.0152762189637476
0.0153775329948054
0.0155505673186403
0.0160457427113176
0.0305878609102331
0.0338437287896866
0.0163110721117971
0.0175237599845376
0.0342708271609838
0.0317808305296976
0.0174978662973957
0.0174379725655593
0.0315688435972614
0.0298409751871287
0.0173235623309594
0.0185193131592724
0.0329234529074959
0.0303367756021392
0.0183902473079293
0.0191055761230041
0.0312268565870336
0.034181698937294
0.0192161888118586
0.0187786922690314
0.0330337659150611
0.0337802177351494
0.0189034829062085
0.0198514694170873
0.0371132235296028
0.0442200981978109
0.0214197376870358
0.0217964372677927
0.0424349976584158
0.0475229825887368
0.0675458113826501
0.0574532260737527
0.0254133385004551
0.0256082567617483
0.0661153486348077
0.0699534228165358
0.0273302550368066
0.0280531130372499
0.0887719158758417
0.0969601309170842
0.0289233208927762
0.0324468467707605
0.135762579674009
0.136645171012089
0.0326432534756559
0.0339847627758013
0.143018595278331
0.15662293023644
0.03814208557596
0.0445336285466121
0.156389048254716
0.179783554733195
0.0495726620874307
0.0506323782256105
0.188059730745193
0.192295194467895
0.0503480788764266
0.0494926552675762
0.192820784596487
0.193624078716719
0.0496216349557975
0.0492446520015746
0.192041730327614
0.191137989584615
0.0497218160068803
0.0493141153207669
0.188492358321784
0.187963486188069
0.0497626306023669
0.0494331377571245
0.185277570683206
0.185823054790437
0.0499219425773909
0.0496513349684842
0.18444133443934
0.18644548007886
0.0502595708885823
0.0503324085061024
0.186709722461839
0.189461690261863
0.0509127483052503
0.05065329457929
0.193575637294541
0.19500380694928
0.0506858984796832
0.0504087648494793
0.193027855999879
0.192192275794614
0.0505820853438279
0.0509095385082361
0.192039720002981
0.191089747505051
0.0504943172973526
0.0507112841188107
0.19295080152553
0.19132697629705
0.0502980301133351
0.05086123271941
0.192477576796294
0.190769759866804
0.0503461137100843
0.0504891990100784
0.191477900235997
0.190429174638617
0.0499494945767
0.0502673875628034
0.192707994610769
0.193018194079047
0.0498013502408202
0.0501894636142959
0.196394061308632
0.197797062440013
0.0496937620680352
0.0503459315551995
0.200745081548902
0.201068794262388
0.0504940376406893
0.0515683021109769
0.200884566220801
0.196163841144665
0.05180584108831
0.0505228634766031
0.186773781915156
0.161352635137665
0.0452883191703332
0.0393576147398549
0.16258737797136
0.152736946163856
0.0355282745238211
0.032428380170682
0.150227326400136
0.101868238644054
0.0274255153779819
0.026754966365695
0.0843991532009477
0.0733205245762747
0.0264295814598576
0.0260157001790968
0.0636264077137747
0.0775443299934927
0.0275535590766932
0.0288745426783811
0.0941065170301904
0.117471091256784
0.0300912043941124
0.0331457760343521
0.117536838108314
0.12180472440445
0.0372097174939355
0.0438914771731846
0.138308545622568
0.148052939373213
0.0495730011041374
0.050735020610778
0.153654849767226
0.158038242899642
0.051061824350784
0.0495981957391138
0.160297905000796
0.162645509753452
0.0495123491035719
0.0484007827393471
0.161261316225296
0.162084276521053
0.0490514301929875
0.0483827327245814
0.159570492914832
0.160727066868981
0.0489920234152539
0.0484675500555966
0.158694996167359
0.160462432562296
0.0491161924142894
0.0488419976819968
0.159848340705878
0.161724036692557
0.0494640744775613
0.0488071054817539
0.16117203699924
0.162520000699256
0.0492883237985414
0.0490324985437229
0.161087171531006
0.161993494939237
0.0494510195256737
0.0491249194872335
0.162237636739176
0.162538040903676
0.0489907674921935
0.0492609845773927
0.1640189877417
0.163192946525585
0.0491777408392582
0.0494435664550405
0.159554760101576
0.157511981988469
0.0488412206585852
0.0488275826930032
0.157028082753405
0.155113158064305
0.0481655100605795
0.0485744801725735
0.15636851813291
0.155001691667817
0.047974275194275
0.0484912162823385
0.157347557099675
0.156410552566886
0.0479109438429281
0.0485873892454394
0.1582167851598
0.157131514015187
0.047972903140629
0.048721840141524
0.157322090707396
0.154393360825701
0.0485513935309215
0.0498477336700386
0.152159106401893
0.148061196780414
0.0496325387723204
0.0485832556301312
0.143092909384741
0.134101121057837
0.0431629345932677
0.0358749379153515
0.119214009574918
0.111175034343198
0.0414526714948631
0.0458008621446185
0.116694821457784
0.119922869469052
0.0466398171312411
0.047457938395743
0.123014014968452
0.12433686614587
0.0463830841124846
0.0472078416002884
0.12719280809014
0.127171058376723
0.0462333347590638
0.0469754140345814
0.129600112100183
0.128390463563204
0.0459374940376711
0.0466987255996948
0.130307394531946
0.128248319349573
0.045945286536438
0.0466825696917915
0.130011822318718
0.12895865974964
0.0461156630771399
0.0468195183787584
0.130570699619309
0.131247901546832
0.0467716335862492
0.0473845823113476
0.132553945082904
0.135701723563396
0.0471092849883979
0.0472387929902747
0.136194551484367
0.135109506850708
0.0469777297115565
0.0470608106362378
0.135034839773397
0.134744309607011
0.0473758291312741
0.0469836671128449
0.134079928299137
0.135124869831904
0.0472749490305472
0.0467320665121862
0.134032367981703
0.134146139061311
0.0474976011119552
0.0467537010798511
0.132433499898259
0.132913300945739
0.047185640237943
0.0464061927803357
0.130831232988828
0.132656630078102
0.0471986095727373
0.0463839935974292
0.130524581087955
0.132469356456641
0.0474548097839546
0.0466566048511364
0.13010895607454
0.13141529725404
0.0480078833952304
0.0473137725948875
0.128788740791446
0.127336079250818
0.0485264848050447
0.0476073154812687
0.124043527966954
0.12041318369116
0.0467555494895244
0.0421460823916778
0.114554408038662
0.103733587083976
0.0379913420356027
0.0328262433713058
0.0951627707466335
0.0941334622075351
0.030641735189015
0.028802157519553
0.0781032253566282
0.0792010086372411
0.0294160672539968
0.0302437540252794
0.0829679482293253
0.0863255730935025
0.030573063208354
0.0393266513511521
0.108685945760889
0.112314186308122
0.0390014252401585
0.0386663701264431
0.113125319200151
0.113323277720478
0.0385889259194504
0.0386776815080516
0.113422936119812
0.11464260492727
0.038961576847066
0.0388062753761998
0.115760120825526
0.115778779176575
0.0388934200383863
0.038731641595892
0.116326078343155
0.116925490393016
0.038857686163301
0.0389706843245253
0.113643327442149
0.111858225271078
0.038522605373838
0.0383979183474777
0.111370343479287
0.111515491985793
0.038327490592029
0.0384671739073444
0.110637664426435
0.108526854501789
0.0385303484568744
0.0387336467288372
0.105224791035633
0.100756033711644
0.037249946275259
0.0318547841874935
0.0939699395050874
0.0897529924901924
0.0292958246324599
0.0316790703707158
0.111415294018921
0.108176371085895
0.0307247580085645
0.0302879835639533
0.106641903038746
0.0805450564243193
0.0284528018736027
0.0275845968699628
0.0665911549580529
0.0696963267055248
0.0282944154898038
0.029239946518908
0.0853197733423219
0.0879950241741389
0.0291793719353583
0.0285270849656502
0.0728733301458642
0.0743325305281773
0.0281569676159377
0.0290126986548029
0.0783372142030134
0.0804835148842658
0.0298184891937447
0.0302718069825675
0.0837910617589013
0.0856100779856401
0.030512538774029
0.0312699614774638
0.0866214118136908
0.0868919188586795
0.0318064045313556
0.0321832181859407
0.0865480169522116
0.0865515785538909
0.0324405851705345
0.0329886914750487
0.0877324085077253
0.0897739942857904
0.0329820849796776
0.0329019491715243
0.0895251125101646
0.089201520735958
0.033004486130391
0.0328632839748874
0.0889653837852657
0.0884451841203491
0.0328314479241862
0.0323300606574836
0.0877533873038895
0.088249845119938
0.0318383268196126
0.0312625210446764
0.0885766079787356
0.0886823242754317
0.030697881326414
0.0300915446834526
0.0268310548537903
0.0263837815533818
0.0258627108006568
0.0252500274839516
0.0233899614941013
0.0232227330565835
0.022881663011088
0.0225695624879261
0.0201216622975028
0.0200715609492648