/*--------------------------------*- C++ -*----------------------------------*\
| =========                 |                                                 |
| \\      /  F ield         | OpenFOAM: The Open Source CFD Toolbox           |
|  \\    /   O peration     | Version:  2312                                  |
|   \\  /    A nd           | Website:  www.openfoam.com                      |
|    \\/     M anipulation  |                                                 |
\*---------------------------------------------------------------------------*/
FoamFile
{
    version     2.0;
    format      ascii;
    arch        "LSB;label=32;scalar=64";
    class       volScalarField;
    location    "100";
    object      nut;
}
// * * * * * * * * * * * * * * * * * * * * * * * * * * * * * * * * * * * * * //

dimensions      [0 2 -1 0 0 0 0];

internalField   nonuniform List<scalar> 
162506
(
0.00149785875275517
0.00155227952170942
0.000102987280105206
7.88006763844606e-05
3.92611320236031e-05
9.52643139518554e-05
0.00046021359599184
0.000530892698067733
9.31989588769143e-05
6.34525776151325e-05
6.95896692012142e-05
0.000885916548798603
0.0009369867189338
0.00130190282528701
0.00293176110549257
0.00332138560337177
8.9528980964954e-05
9.28913028474937e-05
0.00132938456251659
0.000677637406005865
0.000910847201872706
7.98738464700966e-05
8.51391475908544e-05
3.87258447078782e-05
4.36014971336742e-05
6.1259129077516e-05
5.67986063224916e-05
0.00570467393702781
0.000106155703624972
9.8201257143573e-05
0.00813477981037744
0.00772298332459855
0.00496178008761749
0.0104484999770281
0.0150001164422666
0.0149413103688642
0.000100603799385598
0.000109813325067763
0.0106565253322109
0.00846300671270677
0.000113129299340637
0.000110713234718534
0.00510540069490788
0.00458104406243298
0.000110745660726884
0.000110631423145315
0.00324785405060704
0.000815464143858354
8.70918440921089e-05
4.53255821852893e-05
8.51772944455378e-05
9.13392999234632e-05
5.00791938356552e-05
9.64904025529074e-05
0.00116090424766296
0.00128196859176915
0.000101219257535579
9.7904577804129e-05
0.000863658730394863
0.00214259046613245
8.25011090278155e-05
8.17070956365367e-05
0.000955054270284028
0.000819794440884834
0.00228422261238853
8.06792754664138e-05
9.25361068269815e-05
0.000109624100299011
9.78208337420547e-05
0.00434951233345239
0.00283492278420007
0.00418189665654735
0.00593866812953858
0.00352928550434568
0.00247415453741664
0.00192472072893601
0.00167932191696684
0.00333924105462829
0.00298458170295486
0.000102682623899984
0.00011368503700456
0.0053047299929965
0.0050701047257368
0.00827076003275334
0.000102930984169594
0.000112843025859371
9.99222920756843e-05
9.02202641208516e-05
0.0101040747968377
0.00566177133167879
0.0131108999492289
0.00962022210492379
0.0145250904970942
0.0125294196663645
0.00871171626853793
0.0116627788992229
0.0150003114439054
0.0150014806800579
0.0150016964599123
0.0150004415057549
0.0150003386208337
0.0103853837079483
0.0109434998695228
0.000109773936075386
0.00010068785117362
0.0149430612172739
0.00731853504181384
9.82866101813025e-05
0.00010700863659065
0.0056995408940189
0.00570684131235452
0.000110705278753099
0.000113664201405826
0.00931351196872669
0.0080371976515384
0.000111183587871884
0.000110079238433562
0.0078768676591308
0.00485138633716157
0.000110950135352114
0.000110726618370624
0.00380396936059821
0.00334233778927247
0.000115615489727073
0.000112468497479684
0.00230309277386357
0.001125757580208
9.70044000771847e-05
5.4172416496163e-05
9.4275036548773e-05
8.76781121576204e-05
4.83549537432872e-05
7.64270268419006e-05
0.00074418929415536
0.000702730264992273
0.000112257378521851
9.67071815173364e-05
0.00131419866776237
0.00219527901332113
9.3436129506948e-05
8.7600846819892e-05
0.00271997088955387
0.00373600140108749
0.000107807962555369
0.000106075111958237
0.00351606648882785
0.0082455295019285
0.000106407332044418
9.81125390192425e-05
0.00480108472359479
0.00692090816751057
0.000104860942068605
0.000102389277432276
0.0080271021993389
0.00709486546021538
0.0110133032059915
8.65926649435898e-05
9.60094821981522e-05
0.00010591280633764
9.42711392992326e-05
0.0149278969311736
0.00818173660863422
0.0150011165632704
0.0150007013496199
0.0150003458991949
0.0150008131578846
0.0150010952642264
0.015000470106527
0.0134203674956306
0.014193423508699
0.00869007455452278
0.0104532941576417
0.00703799922987193
0.00489613561191675
0.00126315378227991
0.0027893509260362
0.00312922275085731
9.01385023600256e-05
9.62968359102925e-05
0.00143546200838216
0.00168878256600172
0.000103016372972182
0.00011080399645717
0.003186033927355
0.00531990624265412
0.00011096992675855
0.000111896646562766
0.00415520108256234
0.00515057873289143
0.000110575112627795
0.00010817640456946
0.00275947828597157
0.00274826695995633
0.000105287217427125
0.000108578643909412
0.00251728479446269
0.0013571526176385
8.98435582592649e-05
9.46390958537826e-05
0.00138272723649061
0.000725781407200037
8.71464934681145e-05
8.6403798961967e-05
0.000720311608271557
0.000610859197602789
8.03631612926809e-05
7.61384931015445e-05
0.00069709003128451
0.000640236009856938
7.77282995138364e-05
7.31035962719175e-05
0.000814578082690964
0.00058763469201802
5.39950845629632e-05
5.21225265715627e-05
0.00050960429542706
0.000617298533521371
6.46434051450349e-05
5.75149938983937e-05
3.32091300748462e-05
6.77462020610539e-05
0.000603521561723032
0.000540379677062709
7.23378559952811e-05
7.24070342959473e-05
0.000492289536915382
0.000480648475249939
6.03002190217713e-05
3.58906253163965e-05
6.82095292566851e-05
7.43988706612507e-05
0.000384001946170434
7.05465137188834e-05
3.37061875271934e-05
3.50670510056265e-05
7.43872003427404e-05
0.000503903449063035
8.75695396074893e-05
8.46240958597262e-05
0.000561096018563771
0.000968772751116553
8.65370851893123e-05
8.63059990163204e-05
0.00153069308650976
0.0020793765955451
0.000110597564834449
0.0001092968553694
0.00293949715783287
0.00432140036174046
0.000111649321745422
0.000107228740111702
0.00702537861734349
0.00436785219150579
9.5150006586664e-05
9.5558125886876e-05
0.00442222688754946
0.00496046996342393
9.77721921701975e-05
0.000115476935822075
0.00894260813910709
0.0113981856459028
0.000114554606466989
0.000113471249261252
0.0112446059635361
0.00701907191804008
0.000106435097871091
9.44094159059761e-05
0.0149281211152142
0.0147807680238564
0.0132762208415012
0.00587777607079934
0.0116657986827831
0.00941375841288417
0.0122216256603176
9.55658355347233e-05
8.70038573779371e-05
9.0143027040563e-05
0.0146945635030151
0.00536330258342814
9.95862340584593e-05
0.00010366977766515
0.00671410455348019
0.00564732981091653
0.000113322568660635
0.000102798282356337
0.00279515858766278
0.00295190930369354
0.00412948909112204
9.71549174156051e-05
0.000110735253287895
0.000113004048798801
0.000102846591021786
0.00766003790414103
0.00509320300396481
9.10198857828083e-05
0.000831290126780504
0.00235084847243717
8.14040033818238e-05
7.01139385614316e-05
0.000880435940405155
0.00101907773968535
6.37796829831707e-05
9.47447978160536e-05
0.000531951146815062
0.000455049906980304
7.79976906090221e-05
4.00561092289787e-05
9.87572801101994e-05
5.99531150545684e-05
6.40394990613325e-05
0.000927469422490445
0.000680689320357741
8.46163340349754e-05
8.28995473792435e-05
4.37522227336255e-05
3.9521770719571e-05
8.37537751893645e-05
4.57510742217139e-05
8.63676771563128e-05
0.00077769557947318
0.000875653650615825
9.74997715914622e-05
0.000103777546106491
0.00128207632573819
0.00117334367260322
9.25374091603399e-05
5.03682406015429e-05
9.53872820513999e-05
9.68374814728839e-05
5.38110228188289e-05
9.33016023223073e-05
0.00115150143463497
0.00236194332828486
0.000113792229106951
0.000106895832241419
0.0026686843228889
0.00135308875901931
9.44036971843981e-05
9.5193190188499e-05
0.00128678967407379
0.00134896128705603
9.67960617283457e-05
6.47724052237537e-05
0.000712526139855671
0.000422347810952662
5.19292728149758e-05
4.29788893528073e-05
0.000288668089064616
0.000373470170070878
4.75690775794007e-05
4.21402648936846e-05
0.000287605458998517
0.000385219914454236
4.75388546495979e-05
5.37170950336408e-05
0.000513308092253875
0.000621982473877945
6.2134894893017e-05
3.35206936324417e-05
5.22903428491936e-05
5.30079393169836e-05
3.82955129125341e-05
6.54369369403838e-05
0.00039133659972825
0.000487948694286685
6.658605740651e-05
6.29032716100505e-05
0.000864496296640231
0.000418924123746335
5.64661372149268e-05
5.08369814829316e-05
0.000383814221413544
0.000313517982317357
5.87165513703379e-05
7.29369129379247e-05
0.000428067108945392
0.000825769245455062
8.04105515013889e-05
0.000110099537964836
0.000836075206277576
0.00131491055433335
8.93324704693288e-05
9.54740637573642e-05
0.0015594724168346
0.0026203602766068
0.000113713108598723
9.82587650754421e-05
0.00289343256080204
0.00413472923451348
9.59971961624757e-05
9.65665139910877e-05
0.00413536803277022
0.00488907302465682
0.0001151139128687
0.000114684742124058
0.00793519132879972
0.00792071562641689
0.000115002067399168
0.000114992833566695
0.00894424302892474
0.00493983395937717
9.64766463908247e-05
0.00010026135466526
0.00754592046520666
0.00319921434239401
0.00774450109433352
0.00776932146620482
0.0147374076501286
0.0119476007033427
0.0105177368672416
0.00879716626848938
0.011570605084193
0.0134231188195909
0.0110915890937899
0.00476622787364763
9.85285384426096e-05
0.000105250900645084
0.00819973585913795
0.00341748894266105
0.000105878748562294
8.30666958486782e-05
0.00205787014807083
0.00290676738395315
8.69792417295513e-05
9.27816588359335e-05
0.00256256779649809
0.001368931047022
9.76336626226201e-05
0.000109872643700471
0.00073011841231253
0.000824712779238577
8.52822979613621e-05
4.67742361042532e-05
7.71506381051598e-05
8.44148949801385e-05
3.397185644129e-05
7.08116233545246e-05
0.000540732225815046
0.000635440467469251
8.54508357327795e-05
8.61074431400079e-05
0.000724528658597034
0.000668346713345633
7.98649456175456e-05
7.57799144659305e-05
0.000585803347866066
0.000545652935636371
7.63929281251752e-05
6.32804775369424e-05
0.000374474803005646
6.7204880012222e-05
3.2711193691618e-05
3.26981693810369e-05
5.5760076060271e-05
0.000388962553724752
6.15239858602117e-05
6.38180707048979e-05
0.000322552727056625
0.000411076803533116
5.45914306077441e-05
5.25654644910915e-05
2.81031516285397e-05
5.04983975340295e-05
0.000424221050291575
0.000488966108813122
5.72618439464252e-05
5.31162576218525e-05
0.00040873815516719
0.000283127771201123
4.3409499892901e-05
4.00421215019618e-05
0.000259713581020144
0.000245763958480286
3.81319501834676e-05
3.92039497641426e-05
0.000249971026194139
0.000184470922009537
3.64176653038267e-05
3.55936775471782e-05
0.000213996999848626
0.000177581028407246
2.96705294901979e-05
3.73368028408348e-05
0.000190362068355971
0.000259384074113146
3.74792615378802e-05
4.28816351478569e-05
0.000294906845742713
0.000342543307904824
3.77804177887746e-05
4.47246155944793e-05
0.000325181164502463
0.000276791113703983
4.32927577229419e-05
5.52901095835993e-05
4.28058049690552e-05
7.00381217337407e-05
0.000311411039063239
0.000379968996366642
7.36267583850311e-05
6.74263658056852e-05
0.000448161253518799
0.000506323414215073
6.27624266506899e-05
5.63861479083362e-05
0.000444248337635345
0.000431778722778036
7.55477358975091e-05
7.25159717728613e-05
0.000490685836839043
0.000493870560442441
0.000610110509566637
0.000492227393938909
0.000303973941210237
0.000435220783929579
0.000834133211516815
8.29753488433443e-05
6.56526640852002e-05
0.000577280026388895
0.000363785258290267
4.64112123670913e-05
5.11078462317705e-05
0.000461531124138054
0.000753430022401274
6.36757438113422e-05
6.79927579691187e-05
0.000473788384187254
0.000390174867122302
6.02683521016315e-05
5.43923894705527e-05
0.000333531861432359
0.000336605788087635
5.50122079056348e-05
5.30466701854226e-05
0.000499817510552678
0.000948698935868598
7.45164692111694e-05
0.00047705682869072
0.000713810975982836
7.37982235366534e-05
6.30207148439846e-05
0.000582824363583776
0.000504894926064211
6.066048394093e-05
8.14768076710087e-05
0.000380072434660755
0.000460831316643006
9.7388867804509e-05
0.000107451818666549
0.000650413315814716
0.000663056094280915
9.35771896034533e-05
9.22349461305893e-05
0.000971937993617587
0.00177775871233523
9.22070703399738e-05
9.66294150619609e-05
0.00172557267475192
0.00304370841278168
9.71571265993189e-05
0.000114918804706743
0.00274722979090696
0.00283090031916569
0.000115279641414033
0.00011540643904248
0.0051867416225519
0.00411916245592396
9.69099333208528e-05
9.57626483962107e-05
0.00440130918605757
0.00435113418869761
9.59341789507717e-05
0.000107238609305719
0.00760985717199798
0.00412304698139068
0.000107788884481071
0.000112840302963778
0.00320563076092738
0.0023452273757632
0.000110579068532924
8.33096161435075e-05
0.00187717978424322
0.000896594893021819
9.17800167798332e-05
8.1183426177373e-05
0.000521270468059825
0.000299511456727349
5.48792440612731e-05
5.81021689402655e-05
0.000791698884976214
0.000560085078652092
4.65105218583377e-05
5.68134852723232e-05
0.0007978933072114
0.00058570001950162
5.4656332959305e-05
5.32662740328082e-05
0.000417685839718456
0.000423370527865516
5.4754645041442e-05
5.40221408312277e-05
0.000431051160805275
0.000388944592854989
4.96074232426126e-05
4.82885424071092e-05
2.61092776176328e-05
4.10207066755707e-05
0.000284975356575697
0.000243756858209823
4.25360293458161e-05
4.55245793805175e-05
0.000224864554127112
0.000334746676768394
3.98402009484174e-05
2.46706076737012e-05
4.25937387703217e-05
4.49127794863035e-05
2.66069660399423e-05
4.53845302761365e-05
0.000428708063705253
0.00044291709637796
5.32004809197556e-05
4.36721447410218e-05
0.000306096453004408
0.000217161701912479
3.63182456552409e-05
3.85140109773324e-05
0.000182378743749689
0.000174363300895628
3.72271137618247e-05
3.26416622138515e-05
0.000129615109060994
0.000127794851546017
3.19695344165042e-05
3.07470936068571e-05
0.000152985269906841
0.000147248851972759
3.34103916378709e-05
2.62163114378891e-05
0.000126198891586487
0.00014058561532368
2.41549092218326e-05
2.97747411924449e-05
0.000168579887198836
0.000213371586232199
3.02138464168368e-05
3.5710996587323e-05
0.000242642483253088
0.000263387977154987
4.07932181901412e-05
3.3525838127604e-05
0.00024663282404569
0.000212059519110336
3.78672244774357e-05
3.89633426759235e-05
0.000204127563728826
0.000265076338164308
4.76589631098739e-05
5.93600057909149e-05
4.76537101356762e-05
7.5614271067763e-05
0.000302592447784758
0.000369167581132212
7.97517354948977e-05
7.31012211523076e-05
0.00042999522081558
0.000573906336012949
7.02834615420054e-05
8.10786472254284e-05
0.000555133094962795
0.000438576411842329
8.01113308958972e-05
0.000373023798375132
0.000294228515414928
0.000184028626919693
0.000124736257912336
0.00013732036208441
0.000211586057574764
0.000223111531022677
0.000156815326564179
0.000281348669923183
0.000472356187344303
0.000650910826215033
0.000108864097637265
0.00011002554700866
0.000961457978540501
0.00158243143582913
0.000113257518681924
0.000113773236070644
0.00159013781257216
0.00169695919829173
9.76504961722028e-05
9.75905488956214e-05
0.00316204918671764
0.00303704048482978
9.69157662964609e-05
0.00011520895507127
0.00303184151466982
0.00171189422894294
0.000111065466444348
0.000112585330713967
0.00129255592867527
0.000934990705285216
9.50807039208851e-05
8.26852195564521e-05
0.00096314994300758
0.000411898408609817
7.35907501078694e-05
7.27897408184383e-05
0.000425647111908717
0.000409460287654244
4.15963718704089e-05
4.91268927219403e-05
0.000463778687496555
0.000444584934027835
4.79932546560768e-05
5.23003705915609e-05
0.000328404515654727
0.000287686166462971
3.93146923947427e-05
2.58801168512173e-05
4.45217579490225e-05
4.64392099646063e-05
2.96979291370702e-05
4.1232808541776e-05
0.000233728208342897
0.000200563536279784
3.53603800858708e-05
3.02236400639611e-05
0.000229895193816342
0.000189617374791624
2.8426670479251e-05
2.34369315720613e-05
0.000175168856753369
0.000148457247136065
2.27957065983923e-05
1.74623409822356e-05
0.000125548084215439
0.000111377908815394
2.22385749168598e-05
1.82531528406591e-05
0.000107117040962071
0.000108708359677632
2.23640497974914e-05
2.32541583912188e-05
0.000107575273907075
0.000106050636212256
2.29254533777597e-05
2.24491817793846e-05
0.000106096065630038
0.000107883503658292
1.82054614538315e-05
2.24120525531887e-05
0.000117307746378793
0.000135160642207672
1.78632193862996e-05
2.32348473006395e-05
0.000154950771316811
0.000188879064110791
2.53701314794593e-05
3.09220979987299e-05
0.000212540971185598
0.000181714907623628
3.08168731018998e-05
3.30339243160185e-05
0.000175094394362645
0.000160695241659973
3.89929285991841e-05
4.29864657805689e-05
0.000196254107564414
0.000204482078220568
4.97395618321507e-05
6.11113560277495e-05
0.000292054037432601
0.000346667324641772
8.31104597801567e-05
5.38820148210282e-05
6.97066966597533e-05
8.0623095581306e-05
5.8720100488068e-05
9.35516329305516e-05
0.000442895260003134
0.000545094052430774
9.56312199043232e-05
8.74122411561769e-05
0.000417677780394655
0.000453811074121311
8.07889645334297e-05
7.61182707666546e-05
0.000494603849660449
0.000568718998476294
7.95321057729409e-05
7.68454411938455e-05
0.000569605343464889
0.000521248921625808
7.24793067846043e-05
0.000506881226456271
0.0003603020476113
0.000410334700211526
0.000382667025483873
0.000434140169175827
0.000507847021982391
0.000625633575584466
0.000111547879168127
9.79384168538088e-05
0.000759765914486787
0.00105533740202197
9.56527614409646e-05
0.0008151333555754
0.000766011241085051
0.000720079892227887
0.000943316398110578
0.000110106560279286
9.55406411229883e-05
0.000975980876408618
0.000972055602589416
9.27471393007704e-05
8.84475067876783e-05
0.000948221126505468
0.000594371179376672
7.6638231228781e-05
6.59747010118188e-05
0.000713037977082929
0.000639471345731044
5.96225433104543e-05
5.95876204721866e-05
0.000726909451884576
0.000593132667335028
6.46296076429145e-05
6.52888528610322e-05
0.000429305263615033
0.000345130626514421
6.14280239709647e-05
5.35166651334197e-05
0.000332197316334193
0.000304314507082438
5.12129031243194e-05
5.02269801065309e-05
0.000255654056031956
0.000220418544958546
5.84223039043009e-05
4.91042450221157e-05
2.98496197937728e-05
4.30348127496434e-05
0.000216137865531267
0.000181857419173576
3.62380226333982e-05
2.86848343621147e-05
0.000196867866991113
0.000190300335228203
2.44317782730552e-05
2.08095436683997e-05
0.000129750019624794
0.00014564667921603
1.61687754681147e-05
1.79108552547876e-05
0.000132690458764199
9.69215704797945e-05
1.99331306597675e-05
1.60189826925224e-05
9.70548866113106e-05
9.4713782495346e-05
1.92064625475433e-05
1.67078794093957e-05
8.56187807736313e-05
8.06004335339654e-05
1.90490570442119e-05
1.69377783911564e-05
8.34751926286252e-05
8.97226214832832e-05
2.75793736018072e-05
2.08037240137147e-05
9.73937883641436e-05
8.18479463175254e-05
2.49089255978128e-05
2.61666698276462e-05
8.71059969165414e-05
9.4038489382511e-05
2.98234141781009e-05
2.77840279034235e-05
8.96689315260407e-05
8.6224264695876e-05
2.08948787212884e-05
2.47463052516303e-05
8.13536445074181e-05
9.27416545860501e-05
2.0320539947076e-05
2.29940682922325e-05
8.95131031014321e-05
8.32252089992678e-05
1.65582068876252e-05
1.73341181503665e-05
8.31773913904131e-05
8.7655605088233e-05
1.70610715300555e-05
2.06894548315587e-05
0.0001023249661316
0.000109496167230973
1.66328378434414e-05
2.03887147164785e-05
0.000107109954346573
0.000145852402971596
1.865387101953e-05
1.78473487358245e-05
0.000182467225804816
0.000153670358429462
1.8675785925485e-05
2.07928184283951e-05
9.62782694679023e-05
0.000102217081707088
1.57770789292512e-05
2.24843493854619e-05
0.000104120568366848
8.97488581949188e-05
1.81277596285345e-05
1.78825274315047e-05
8.1706008222172e-05
7.96258266775614e-05
1.67330528951762e-05
1.9700044207305e-05
9.0240461196009e-05
9.6098070711778e-05
2.08014764509169e-05
2.49024119475214e-05
8.48110421848697e-05
7.9211968603002e-05
1.95914194027655e-05
2.51984422102127e-05
9.49332162843973e-05
9.80095892062126e-05
2.60188128425053e-05
2.4682493039185e-05
8.74849747505438e-05
8.87554470168547e-05
2.59969162849996e-05
2.08561383091161e-05
0.000103714974034657
9.39993383798219e-05
2.10924744284668e-05
1.63185556664282e-05
7.89392017531318e-05
7.91419286051194e-05
1.83438457652702e-05
1.77187785267423e-05
8.81937166398229e-05
9.59592693506007e-05
1.99062359301922e-05
1.56458607832821e-05
9.1322407226073e-05
8.8844600882728e-05
1.97398072396667e-05
1.85174149319924e-05
0.000126971868764372
0.00016066580782239
9.1527881055998e-05
7.98520396027173e-05
6.10029464483369e-05
5.9425312065692e-05
5.97055581426785e-05
6.74048913703763e-05
8.71800129887775e-05
0.000126538293941436
0.0002482085494927
0.000334110223979813
0.000498528844673619
0.000652501831909406
9.51020556397139e-05
9.20221495967432e-05
0.000668129274619946
0.000554871817363679
0.000100763670253206
8.18691242030628e-05
0.000493002440195223
0.00042962275176358
7.27068030148315e-05
7.00612271598786e-05
0.000460361796742839
0.000471936963708039
5.75290570635334e-05
5.61273353386962e-05
0.000519538102395354
0.000409885026715956
6.17296701437611e-05
6.5959352720724e-05
0.000358212456054441
0.000297205517525633
6.49479822615659e-05
5.75302885781299e-05
0.000266590928229449
0.000272622805173349
5.66359766510143e-05
5.23273305467802e-05
0.000212241444250951
0.000197433981137654
4.85479150208314e-05
3.41863887335922e-05
4.49715350454865e-05
3.97928214580699e-05
0.000167853222032741
0.000185678003836205
3.0770502949055e-05
2.28787704629268e-05
0.000154316251181012
0.000166570181072837
1.92001098997648e-05
1.96966538801264e-05
0.000119700763203127
0.000108125229898909
2.1900442419766e-05
2.15598439906635e-05
9.82124561092621e-05
8.36887448209046e-05
2.34988080042357e-05
2.2752192066762e-05
7.51672456862336e-05
6.9513298867352e-05
2.25935102133292e-05
2.29442658883107e-05
6.06278736457429e-05
5.43018008552313e-05
2.42306688130157e-05
2.40118770052279e-05
4.97481902837262e-05
4.54292353358505e-05
2.32355019153096e-05
2.10408609319614e-05
4.31455131237439e-05
4.01722470463371e-05
2.30730141341501e-05
2.47110660200347e-05
4.05654388356589e-05
4.03600859044887e-05
2.47047717104018e-05
2.37319867229071e-05
3.99401334910177e-05
4.13112655385641e-05
2.27322760610077e-05
2.34048096289139e-05
4.19828191894798e-05
4.54701766915863e-05
2.25165770255673e-05
2.51207601993314e-05
5.00013982803289e-05
5.5690177228423e-05
2.39302173650706e-05
2.29157623857699e-05
6.16771238540972e-05
6.69293878993558e-05
2.34692937942129e-05
2.40919344553151e-05
7.67253403354308e-05
8.6229955583873e-05
2.35354068949385e-05
2.41001671691421e-05
9.39515774720306e-05
0.000120224982017517
2.33986486714305e-05
2.20920328418507e-05
0.000118308925824303
0.0001169254867297
2.17367787879747e-05
2.2495857560262e-05
0.000149354422357284
0.000142256743677778
2.8579606621759e-05
3.63311006115424e-05
0.000141348335666676
0.000153313227409419
5.13830923410448e-05
4.91188310033545e-05
0.000173755815694519
0.000182635051556727
6.42057543144747e-05
5.32412997164696e-05
0.000222985120096401
0.000250209953660954
6.21539238303472e-05
8.34048627847705e-05
0.000360914847789899
0.000460385448676738
9.55802890695759e-05
9.11669066131508e-05
6.14285539377667e-05
9.85078092613676e-05
0.000607410173910894
0.000745908957833091
9.39909295236157e-05
8.92000274339866e-05
0.000686029942045041
0.000663926051815927
8.33219973545275e-05
8.07258186384082e-05
0.000588158741542954
0.000674908057467799
9.21862519387453e-05
8.08751832326604e-05
0.000729936097024691
0.00095509220076071
8.13478098903957e-05
7.11507002616269e-05
0.000639704711846161
0.000649042483555967
6.57911424418252e-05
8.7039348328659e-05
0.000559365385134308
0.000782972005395324
8.6112212448306e-05
0.000110586110233693
0.00120325027597749
0.00108899293192576
0.000116996431166005
0.00013969410679289
0.000965701033059584
0.000850678648120791
0.000143531695651249
0.000119746881294732
0.000572679788634007
0.000532208236656483
0.000117984191758335
0.000107996746812616
0.000613523313552081
0.000429738086885596
0.000394446024023041
0.000430979941146382
0.000547908484512352
0.00010743178949287
0.000137656298882181
0.000816498289956774
0.000874654653911079
0.000117514743919877
0.000103867022290832
0.000861550244212494
0.000603877520799974
8.48899472214341e-05
7.75894889218232e-05
0.000430616738072813
0.000448862108634642
6.85143480025305e-05
6.11283845238236e-05
0.000429026101975392
0.00047745439949596
6.03237006802855e-05
6.90873454113898e-05
0.000494510670786373
0.000382049849552788
7.59815567608115e-05
7.48914964277057e-05
0.000342680839099236
0.000285156787120162
6.78499391350189e-05
6.82110871586757e-05
0.000317534231763063
0.00022565602614047
5.86629311900085e-05
5.42293745636691e-05
4.35065063299766e-05
6.0504258713528e-05
0.000221236454145378
0.000171804381852825
5.49371952133176e-05
4.79279104291125e-05
0.00018588661807882
0.000182078289677066
4.86306159552098e-05
3.63619104550316e-05
0.000100527032569758
0.000113145391489923
4.83908438003702e-05
4.91433533240212e-05
0.000106514014051377
9.58248614776651e-05
5.1379159117122e-05
4.53658377739209e-05
8.07028181365082e-05
7.85789698305607e-05
4.09993944895717e-05
3.82916777914561e-05
8.16798502307169e-05
7.85043017831532e-05
3.86037106125234e-05
3.72799147319071e-05
6.95130435130321e-05
5.45028713276779e-05
3.55824398335826e-05
3.54222609572774e-05
4.49769546191655e-05
3.84383222794073e-05
3.33785821951754e-05
3.16583742220947e-05
3.48572285386128e-05
3.27580048787915e-05
2.96251578904212e-05
2.90615093570037e-05
3.16229005951231e-05
3.06092793573229e-05
2.75676065022913e-05
2.76172456697796e-05
3.02245758650554e-05
2.97546679664064e-05
2.64331185263038e-05
2.67516383786691e-05
2.98029477714236e-05
2.93758485693687e-05
2.66366909989367e-05
2.64396761554853e-05
2.89419580430708e-05
2.8768843773595e-05
2.74612621613079e-05
2.77082526116006e-05
2.95993366910995e-05
2.95614087032382e-05
2.74450312625204e-05
2.72145215729967e-05
2.88660886846644e-05
2.89153051173646e-05
2.71529339311712e-05
2.72039808975889e-05
2.9320249276799e-05
2.95724638979116e-05
2.64567180976307e-05
2.70637842353621e-05
2.9036166041458e-05
2.94587728571787e-05
2.76222596771725e-05
2.74260086700844e-05
2.98627517501654e-05
3.06487502935618e-05
2.84696441968908e-05
2.83328014793865e-05
3.10113178797409e-05
3.19882143611974e-05
2.99272465850712e-05
3.06292789797443e-05
3.32203867568655e-05
3.54907116667926e-05
3.27116119712087e-05
3.40592272199997e-05
3.91581367141278e-05
4.57801430986215e-05
3.64240858943127e-05
3.70561144892712e-05
5.57361790870515e-05
7.18394456623353e-05
3.92482239086433e-05
4.0706266544216e-05
8.13823294472597e-05
8.70682547334282e-05
4.03270376361786e-05
4.33833457616818e-05
8.02937401596898e-05
8.52219804437079e-05
4.63837765924688e-05
5.2817149019727e-05
0.000107510040865922
0.000117903853983029
5.35070857548616e-05
4.23739404236256e-05
9.59582556467879e-05
9.40318212525492e-05
3.27888607810573e-05
2.94718442481639e-05
0.000103293570975088
0.000101638777045511
2.54442703577572e-05
2.67064266358452e-05
0.000108706580306119
0.000112916505374241
3.15300779759105e-05
3.93602301859866e-05
0.000109016848288483
0.000101377285891079
3.74834936749924e-05
3.27539840221755e-05
8.17580086596314e-05
8.11252746873159e-05
3.7707072199372e-05
3.18369741471546e-05
8.33380991703776e-05
8.12391007723333e-05
3.22504604214015e-05
3.13748068914419e-05
6.971085314843e-05
5.50978833198164e-05
2.94463613583715e-05
2.9147846330718e-05
4.41601070075337e-05
3.72271845106806e-05
2.68966062381325e-05
2.62601552722812e-05
3.33543305980653e-05
3.07712997858274e-05
2.43999352090539e-05
2.42508953699004e-05
2.93725509431797e-05
2.82742354160847e-05
2.26853185118944e-05
2.30756442519534e-05
2.78486315121185e-05
2.71801700797829e-05
2.21357093197872e-05
2.24996687963557e-05
2.68496050613146e-05
2.6389214762696e-05
2.20593664921927e-05
2.14435706581985e-05
2.68054683579379e-05
2.65775114897435e-05
2.20199521742475e-05
2.21669101642596e-05
2.61388195368111e-05
2.61002888122535e-05
2.22088487661073e-05
2.21197874354565e-05
2.67097164130919e-05
2.67744671985985e-05
2.23212555126938e-05
2.23779031269951e-05
2.61569833285173e-05
2.63134957115312e-05
2.15783583075151e-05
2.16681204076985e-05
2.66238173936553e-05
2.6945387024168e-05
2.17077062660635e-05
2.14185387535762e-05
2.69900541619503e-05
2.7460397937886e-05
2.25537601798467e-05
2.21830698025619e-05
2.78840771723198e-05
2.89062405852275e-05
2.35785775966447e-05
2.36808932077733e-05
3.0178677136278e-05
3.25620263571185e-05
2.55856827130881e-05
2.64604108750706e-05
3.63423543836019e-05
4.29336153437589e-05
2.83799543496578e-05
2.83243549389723e-05
5.38937470033034e-05
6.70573989171839e-05
2.99499232547527e-05
3.08662642810714e-05
7.79346251058136e-05
7.8869930509118e-05
3.03590082898409e-05
3.60158992268767e-05
8.00378643948427e-05
7.82720652632841e-05
3.25041795328944e-05
3.0650646435615e-05
8.12357136888352e-05
8.03917723205006e-05
2.64148355040609e-05
2.71772653252544e-05
6.96056703871087e-05
7.02745867366441e-05
2.66438933555099e-05
2.50801791594362e-05
5.32952607976832e-05
4.68702456045139e-05
2.53718102710051e-05
2.35553199776917e-05
3.59406576172814e-05
3.40372316525616e-05
2.33501267381801e-05
2.13538945368333e-05
2.99916379456048e-05
2.9297400761263e-05
2.17436913222038e-05
2.01891134731438e-05
2.76977372487222e-05
2.72951723219962e-05
2.09462079726612e-05
1.96213709883479e-05
2.65094420394696e-05
2.67363921060244e-05
2.00289201357956e-05
2.00200353754949e-05
2.62645391273299e-05
2.58665861802874e-05
1.99386107825598e-05
2.0658706365474e-05
2.5518885348748e-05
2.64679078811214e-05
2.05078004246859e-05
2.03513860153712e-05
2.64774257831859e-05
2.54623235799958e-05
2.06207507880083e-05
2.05471110334533e-05
2.55334902719156e-05
2.61379767637953e-05
2.03332016712979e-05
1.97727413001363e-05
2.62368144461371e-05
2.58344196104202e-05
2.0348549009117e-05
2.08403731901781e-05
2.65870844824511e-05
2.68634219975848e-05
2.02655596966941e-05