/*--------------------------------*- C++ -*----------------------------------*\
| =========                 |                                                 |
| \\      /  F ield         | OpenFOAM: The Open Source CFD Toolbox           |
|  \\    /   O peration     | Version:  2312                                  |
|   \\  /    A nd           | Website:  www.openfoam.com                      |
|    \\/     M anipulation  |                                                 |
\*---------------------------------------------------------------------------*/
FoamFile
{
    version     2.0;
    format      ascii;
    arch        "LSB;label=32;scalar=64";
    class       volScalarField;
    location    "100";
    object      p;
}
// * * * * * * * * * * * * * * * * * * * * * * * * * * * * * * * * * * * * * //

dimensions      [0 2 -2 0 0 0 0];

internalField   nonuniform List<scalar> 
162506
(
83407.4956092448
83408.1411455979
83407.8250343802
83401.5738983593
83395.8238652384
83378.5599026313
83398.3525185352
83398.0385809835
83376.6160572237
83452.9688859585
83456.2740895792
83427.6690602633
83420.1863321347
83414.1870908009
83415.0411897273
83415.8544576104
83416.0383466198
83413.1366864504
83414.7527101738
83417.6127696545
83425.8908049165
83424.2171111974
83412.6957751298
83427.5909260861
83440.5209359227
83454.5953917996
83458.7087302747
83411.3533499891
83411.2316470405
83412.4331466893
83412.1521960981
83411.2418310959
83410.9050805558
83410.1965196317
83410.2741433878
83411.0198684879
83411.224081364
83410.9878913735
83410.8412455362
83409.9137781232
83409.9335424193
83408.7669207574
83408.7112933329
83407.4421701869
83408.3484508593
83407.287669072
83405.8692371999
83403.7199795677
83392.0268685872
83399.7531308267
83405.6761789455
83409.3849978976
83406.6321692925
83404.5087545929
83408.9092128309
83406.5237089099
83403.8760723027
83392.492298724
83401.7001032301
83404.1680401196
83403.8511705064
83395.2471606155
83401.6815097262
83410.7671534259
83417.5877050212
83430.2983753345
83411.1133489711
83405.4782875824
83418.4294360885
83410.7028878977
83407.8470501169
83409.5310983454
83410.8019033983
83413.4401522291
83411.3478162588
83405.9495427819
83404.1643997134
83406.1135227009
83405.8309285272
83405.8046417848
83404.0478393389
83406.0891848289
83406.0846513291
83407.8663591173
83412.5657625596
83402.4353941489
83402.3582381111
83409.4740116251
83406.4404002095
83404.706953337
83406.0067002008
83406.50078861
83407.576420423
83407.2033349821
83408.9132325683
83409.3265870912
83408.9341133359
83408.8149822721
83409.1585546957
83409.2630968547
83410.5994193367
83410.5407341376
83411.1692810621
83411.3033602605
83411.5162096839
83411.3111493025
83413.0004587502
83413.2606093309
83412.1359010788
83412.2378248575
83409.8182461356
83409.8426068894
83410.3164362282
83410.2822277761
83410.1743574557
83410.6717342812
83410.1697759654
83409.6588661721
83411.3926691718
83411.8573576263
83409.8158307761
83409.3060482391
83407.5691949898
83408.6186969616
83409.3015746512
83408.6070282455
83408.5311889848
83406.2935845495
83407.0874526824
83408.9603788035
83407.9665219579
83406.4176439372
83410.5523338596
83406.5730045868
83401.8462959519
83401.7096883181
83403.1560242579
83405.4277218025
83404.2244517296
83403.1069919431
83406.3762371045
83406.1921903914
83405.4776314709
83404.6604760561
83404.8922472304
83405.691633914
83405.9653350778
83405.7942203601
83406.5800677617
83406.5662732567
83405.9386792224
83404.8555511648
83405.9752847333
83406.0788504238
83403.4114491987
83404.819319119
83405.8353881656
83399.5681019968
83401.9447713229
83405.6212047202
83404.9351270541
83404.4122917688
83406.1135448006
83406.1867469556
83407.5095753466
83407.3513317229
83407.6416273961
83407.7958481202
83408.4962430277
83408.1418176485
83409.9454645152
83410.3091045646
83412.148453268
83411.8670498349
83415.5575100665
83416.3980008747
83417.1246864368
83417.3262753153
83414.4806244996
83415.8551766331
83409.4607221535
83409.1526063688
83409.3846781671
83407.9953860714
83409.0307968651
83409.8889099394
83411.9144512738
83411.3470652523
83412.1017290735
83412.5755066601
83416.1484854939
83416.4342878437
83415.2659871652
83415.1208439024
83412.614715207
83412.4230481205
83417.2234932449
83417.2411585705
83410.6769428744
83410.0017225028
83408.2025270492
83409.5812483909
83406.2445831847
83404.5851160245
83406.1821187493
83408.7458148817
83411.3617212234
83410.3215905291
83413.5752651223
83415.4842529441
83425.1899817283
83424.6110947242
83424.8387694146
83425.4334707339
83429.5031174994
83429.3244718642
83415.0432697675
83416.2307890254
83413.7790785935
83413.5965337699
83415.9690621703
83412.6760427831
83413.0426767023
83427.480535532
83397.6442449461
83408.5068426599
83407.9495662352
83410.0772533763
83400.1761158589
83393.4080345699
83376.4901039454
83400.7351898969
83404.3318425855
83392.6506282007
83397.2267489286
83403.7679814775
83398.6924519647
83384.1052206904
83371.7998017784
83391.8966326166
83395.5889729737
83394.9428706154
83400.1060174926
83401.3117532691
83399.9405664407
83398.3854370857
83402.3535384694
83403.378826493
83402.9880256334
83402.7311582602
83405.5694221286
83405.199160916
83405.3078631859
83405.6103953515
83406.0342408557
83405.4430704346
83407.0541381578
83408.0565152442
83407.4574659016
83406.9431651257
83406.2726290135
83405.8112123714
83406.5235557425
83406.6752075608
83404.4352547166
83401.4165426535
83405.4204382199
83404.9653802612
83406.368466
83406.2803554362
83405.9690860025
83406.3722189683
83405.1691585477
83403.7898607447
83399.4261711454
83406.0670931038
83411.1390293397
83407.5196508798
83405.8708438479
83403.9715220557
83406.4100280836
83407.2304156578
83407.3346339871
83405.0971426688
83406.9555148931
83407.3073216059
83409.5637998151
83412.4442742162
83421.03440188
83408.0074098079
83404.211826753
83414.5193574484
83409.3405683384
83407.4596550605
83413.046425936
83412.5102567657
83419.4543839075
83432.8250619142
83458.8426876318
83429.6604780474
83421.9976465811
83454.3459762056
83377.8591707554
83400.1549378414
83400.6315590829
83404.0448591724
83399.0380678082
83380.7710672657
83455.767474055
83454.9068667685
83427.8106686931
83419.0049881991
83414.5219567948
83425.7254646062
83441.0316807638
83428.9594158015
83395.7889241239
83402.5647436772
83407.9863491491
83406.1644835709
83404.1235189381
83395.335973818
83407.2894607015
83409.7831737795
83411.7533460561
83412.0093027502
83409.2537848893
83407.965533521
83411.3230016537
83411.5306485385
83413.3118783458
83413.0336045933
83412.8861809971
83413.3399885791
83415.3521516873
83415.5155847491
83423.3918040612
83423.0073521053
83425.6687298107
83426.0295762005
83423.4525490041
83423.1078090802
83438.0433510045
83438.4038073731
83456.2801605433
83456.2376080307
83474.0849187253
83473.6917792457
83449.149457893
83449.7437073727
83459.5987733068
83458.9848148522
83432.0387008103
83433.8967998929
83416.2951865974
83415.4578387648
83411.4529029394
83423.0473939321
83415.0770606397
83410.7478557081
83390.8429349362
83392.296553285
83394.991527028
83390.9575131343
83392.118105661
83404.1848384449
83437.2405867862
83416.1089303147
83420.5298351945
83445.972702434
83433.5269152746
83416.1056648114
83398.9207691609
83387.1385590683
83431.4795354262
83404.0382195051
83391.3091389919
83391.8285540027
83379.4296991147
83383.7764380219
83392.6631607319
83389.7416059322
83389.9373045209
83392.1180820224
83399.1496144714
83398.0724545159
83397.4662968875
83397.8183079749
83402.3099247884
83402.2632125706
83402.2165914369
83402.170624658
83402.5583720519
83402.2444357954
83405.595974122
83405.4394717303
83405.7327733736
83405.7974815579
83408.4457140695
83407.4421498625
83408.0786029507
83409.3606484139
83407.6728848779
83407.0966985943
83406.8040139585
83406.6845148558
83406.9324499597
83407.3205739591
83407.1684400714
83406.7633636699
83407.2647450683
83407.3083776104
83407.2786385198
83407.3987219078
83407.763210766
83407.546510017
83407.3469098421
83407.5586080168
83407.7594129412
83406.6231899574
83406.0822120593
83406.4079133
83409.4369503668
83409.8481778167
83408.0947724971
83408.9078109959
83410.2612385483
83407.9384822804
83408.9527642649
83409.5359274635
83413.6518916206
83414.654950999
83413.1257439725
83417.1215068463
83395.7215339635
83407.4440880907
83413.9842619248
83409.8885954217
83416.1232816424
83417.9511549614
83420.6644384544
83418.7124080859
83425.7743538788
83427.2435250143
83426.1018622202
83425.8014012921
83420.0805214937
83422.2191174204
83418.8123294568
83416.9464530098
83390.8205513033
83406.3870961503
83417.9081014772
83430.5035467457
83428.4167275415
83408.6903914787
83414.6180350555
83432.9342626287
83440.4270968588
83446.3552531262
83431.9249066182
83434.9460355451
83441.3781025885
83437.9643811899
83441.9462793761
83443.526282882
83461.0583789649
83460.4578497101
83482.2876655069
83482.7476956062
83500.7270596093
83500.4126156644
83504.9194454332
83505.2472920692
83494.7799549217
83494.3601949573
83534.2169044511
83532.1698833709
83497.4070142486
83497.9750728075
83502.7823065603
83503.5195697949
83477.5238447827
83476.2138838025
83448.7841396672
83450.2723316824
83434.859740431
83433.6694895089
83415.074050344
83414.6432518069
83400.5310792238
83400.7882475375
83369.8309017654
83369.6455098005
83361.1334054296
83362.3635880793
83361.3472681962
83360.5145014603
83359.6436910496
83362.7194458687
83360.9081652785
83358.8588725247
83355.9680769711
83354.3607741831
83385.8201366418
83384.8436544768
83376.9674584716
83372.3372151497
83402.4331806184
83400.1875294708
83402.7548124482
83394.1844103384
83401.3310246084
83384.5455667765
83363.1294340086
83366.7101348023
83351.1130821475
83388.7537960867
83362.7146424854
83352.8704234096
83422.4194201112
83417.3835388322
83361.9678783452
83367.3900563503
83390.3737607161
83390.1013942095
83366.2805952006
83359.0501994797
83404.3872802529
83377.3573010881
83347.9639808239
83356.0603950693
83379.6982566369
83371.2288973457
83364.0307414421
83365.3065159072
83349.2848821438
83364.3218241928
83357.577771357
83351.0438458129
83349.816310056
83336.9542634699
83335.2493625095
83345.8411692376
83320.3438070295
83327.1698806674
83309.6131139898
83289.4469066132
83314.9234107518
83316.4949802334
83355.0651980971
83355.0008870482
83380.1268400924
83378.3878696196
83390.4324129119
83390.0192265075
83389.3850529152
83389.9225436954
83397.5515329851
83397.2415512069
83397.5017983356
83398.1803979494
83398.8946570282
83398.1332232843
83402.651060551
83403.0361975709
83403.5661041198
83403.5478759439
83406.6774586287
83406.2868790662
83406.8257681892
83407.0088378641
83407.9962097894
83407.4874167227
83408.4199000259
83407.7567633657
83406.6527679825
83407.5991448341
83405.8836230651
83404.8399819671
83407.3630907556
83408.1322110943
83405.0973000334
83404.4450313533
83382.0337295694
83403.7428466302
83418.8159718226
83403.7461677767
83397.7468605473
83423.7091073101
83450.7958449293
83473.1683588322
83474.5567752329
83452.2726131734
83449.2310189919
83472.0600999272
83464.7436582712
83445.2644220602
83444.3586489038
83460.533800244
83458.4870874874
83441.1377477674
83427.2793569063
83438.832261483
83429.2715698919
83429.7747105406
83427.3429330654
83427.4073439079
83430.2239288337
83428.4476184684
83437.2736472501
83438.1072681969
83440.8579091465
83438.6414022224
83446.2314709151
83455.8645997367
83454.8946310178
83451.4400136232
83447.7786454598
83446.6055696381
83451.5500365234
83453.0372704113
83479.8149867921
83477.6008678494
83512.3279846466
83511.9745662771
83542.6789513049
83544.8330020752
83553.5109049835
83550.7210284457
83607.9882379108
83609.3165588361
83593.942381022
83592.9835245279
83569.0359078266
83569.7881106631
83541.6971280602
83541.7852269303
83557.7196547314
83556.7329897539
83510.153808114
83510.9288663657
83472.0555515059
83470.759054079
83441.4096763849
83441.1214871453
83421.4790613458
83421.9433978274
83405.6976977744
83405.7295252508
83388.3186066311
83388.3263821649
83367.8418866657
83367.5707855886
83341.558530893
83341.6911379145
83331.1846111943
83330.8237967051
83330.2116891328
83331.5917968102
83330.8618062065
83330.0690342102
83330.7516869406
83333.1175519506
83334.0916079748
83332.5018179545
83333.5180240857
83333.2784704014
83330.9968022486
83334.8266248321
83354.42542417
83347.1468483413
83360.1122860063
83364.8530403038
83374.899930434
83368.7745055409
83360.6148383251
83349.6070972015
83362.7619227071
83376.0263175788
83376.6190258546
83362.113356874
83356.5648986827
83355.3165335047
83376.2078670427
83377.8043504625
83390.7798135913
83389.5349763275
83390.327368785
83391.7691245248
83392.3906226565
83391.4991330682
83399.1032774807
83399.4942862058
83400.8180534821
83400.4320380045
83402.9214369122
83403.5777470099
83398.3323982505
83396.9741971649
83399.542576376
83401.1140866309
83392.5760314171
83385.310148054
83393.5485890833
83402.1258006803
83420.3590684656
83442.9529958614
83415.3919761859
83421.2886359452
83441.0861521786
83454.4487198776
83418.1976480063
83413.6622688353
83420.1743170923
83430.055312348
83412.9868610063
83414.0699986577
83411.0572765837
83410.8855766334
83410.6107842671
83409.4597287079
83391.2292319523
83392.0647109532
83393.1812484075
83393.3854155342
83402.5260632518
83401.7032578301
83411.2289423878
83411.6260454704
83428.733940776
83428.1658298375
83451.7720399172
83452.6686154006
83491.2823169987
83492.3059797653
83548.7429970797
83546.53154417
83606.9084184809
83607.2017894192
83667.3259057745
83668.7705834063
83706.5308660066
83703.5269793289
83722.5127872275
83725.6403394772
83719.0239366122
83716.0758362082
83681.9241853675
83684.5235877163
83635.1779882332
83634.7792518076
83568.4384911465
83566.8703193051
83507.3680867094
83509.2611175736
83457.5502385787
83457.5523852583
83423.92231587
83423.0569062607
83402.5784965394
83403.4855007701
83378.8146644212
83378.11841727
83344.4455188774
83344.6053029543
83307.9252763136
83308.8336724294
83312.9817062169
83312.7674302438
83287.5495517915
83287.2107289888
83290.5490306217
83291.2913482846
83299.9363797954
83303.7793404117
83303.051702831
83299.2549990911
83272.9804236783
83278.7543815831
83281.4365318854
83274.9648316212
83279.4053960448
83285.5315423107
83307.3328746992
83303.1175089758
83306.9921105976
83310.9901117558
83315.7253527034
83310.8122872332
83313.5902590199
83323.3938549285
83321.9679266362
83313.0671286928
83334.7219340364
83334.8283489379
83330.7248230444
83333.4565261782
83330.8309153979
83326.7141927486
83317.5053790664
83319.1739220476
83321.758206636
83323.3398507867
83354.4602294886
83354.6750178547
83376.6564122857
83376.1434357578
83380.9408272825
83384.065023495
83386.2518920517
83379.0640820041
83377.1696584399
83378.3560141835
83379.4724148984
83381.3800897385
83380.1400913243
83384.7588132795
83388.0625671001
83368.9253788505
83370.9968267644
83385.1776719058
83381.0681146758
83386.0632136715
83388.1918497954
83395.2466798287
83389.7998908243
83396.1333961822
83395.9748062982
83400.7707652439
83403.826157808
83375.6446898303
83380.4542439122
83381.2436882947
83377.8945277441
83378.170465718
83380.6578230927
83396.3148522238
83394.5345897117
83373.1150948657
83368.733740165
83370.1103972811
83370.8621143045
83371.1973027966
83370.7262111683
83378.0617560947
83377.8306733549
83384.2394629247
83384.9447516469
83398.1759319574
83397.7940301946
83422.7992469986
83422.5242695682
83441.012237365
83437.5811891641
83445.6408228374
83448.6366871852
83473.582764796
83472.1615855302
83501.2766811344
83502.628042735
83536.8735880991
83535.9399044943
83581.0193406397
83582.2009062293
83626.2592729743
83625.5855120006
83667.5283493282
83668.8301492786
83706.0874169187
83705.1900733191
83735.7382788934
83736.9568603507
83753.6898636307
83753.6220198357
83766.6265413211
83766.7340373686
83773.4811518426
83773.0576882265
83767.71551286
83768.1299539277
83752.3523618479
83751.7027070107
83728.9991399265
83729.4053130416
83701.7374326325
83700.5449899004
83661.7246089397
83662.427155076
83618.480902198
83617.3449515892
83571.7422563694
83572.8617186486
83529.7667604332
83528.8164886281
83488.5620066934
83489.3926140518
83459.7167607864
83458.3903984329
83436.3906787558
83437.5111817055
83415.9636136802
83413.6696930722
83405.4980287
83408.3461557231
83415.3435560045
83413.896860606
83453.746098915
83453.69562006
83473.0613647465
83473.1294651364
83507.6390218309
83507.2355262186
83538.6189588194
83539.4719426648
83583.9132021464
83584.2902455036
83618.160746893
83618.846489084
83665.1716594376
83665.539931306
83692.6752457073
83692.2966797082
83718.163014362
83719.7536133273
83736.9448481122
83736.4608144027
83755.7970080076
83757.5998898773
83761.2375565035
83759.7753700518
83748.8915376149
83750.1697871706
83740.3777473381
83737.8891749787
83724.9093044301
83725.5471454214
83704.3350817859
83703.6089206591
83663.2033390818
83662.6414058859
83631.9255895638
83631.850272636
83587.543948957
83586.5718332009
83553.0089981805
83553.4526868993
83514.2417308769
83514.4628016093
83489.7261195632
83489.056475972
83446.114444141
83449.0285346907
83447.2626827083
83451.6833346064
83449.2079386026
83447.8478261902
83442.7372922682
83428.6328832087
83407.4095811867
83383.1328597911
83368.3057241738
83365.755633298
83374.3010113509
83362.9522903743
83358.0708315136
83357.5290569419
83360.0197624383
83360.210261406
83320.6067366543
83323.0937076006
83320.901384119
83319.5550957753
83330.2658441477
83324.7636363669
83365.9651012832
83360.1941963063
83364.4244634243
83369.002281353
83370.2710746416
83366.3026910524
83371.1968915406
83376.5775399349
83337.3714662061
83333.2754083297
83334.6613028954
83339.3504504099
83339.0775430137
83335.6815543401
83330.9979135034
83333.3660928922
83351.5020256016
83347.008342072
83344.0143502292
83345.7573909991
83344.9678553125
83343.6582807989
83347.280550474
83347.4205267494
83349.0528885944
83347.8404143144
83353.8045182038
83354.8816352208
83361.7142123868
83358.4611920035
83361.3729505577
83364.1607876647
83378.5556220705
83377.8995820746
83394.2616584805
83394.042691676
83414.1926915729
83413.936654184
83441.7268109452
83443.2641389955
83482.021024649
83480.2407958975
83534.6372891404
83537.8399058578
83595.0427254121
83590.9456284123
83644.7527583001
83649.8136234831
83692.4236364888
83686.942566149
83721.6919137973
83727.3965774898
83747.0772694469
83741.2069308503
83754.771673596
83760.5466139484
83763.6945759139
83758.0315819557
83752.5725064385
83758.1645494451
83745.9100548086
83740.2371959192
83714.7584153831
83720.5908763225
83687.6340107178
83682.0884785654
83635.2259089133
83640.0207617423
83585.376372075
83581.4967629507
83522.6250935201
83525.1007576329
83472.6295028398
83471.0382200075
83429.4743493947
83430.1280429647
83403.477639228
83402.9403756995
83385.0912732734
83385.1484333035
83372.9298935648
83372.8414741001
83366.5388520648
83368.3214491596
83395.9503999648
83392.8684236322
83391.9225589352
83393.4774058891
83346.2503629332
83345.0855644403
83296.4059725072
83294.4427501363
83246.0633896033
83249.7025148252
83274.3965707637
83272.9518012631
83246.1288123011
83247.2121843195
83262.5500489466
83263.1612878137
83249.2698574485
83247.5480330777
83259.4226521079
83261.0182212176
83245.9228746848
83244.1506024691
83256.8098906178
83262.3814926886
83265.9550935464
83259.3636778386
83263.9828416958
83271.1409938227
83274.9761797111
83269.3685365352
83271.3880681747
83273.1618896748
83291.5321115627
83286.7589301215
83288.6672150969
83295.8671668352
83295.5935911292
83290.578771709
83291.021603696
83291.8867156179
83312.0612148059
83309.8236517366
83307.9588310066
83305.7800672778
83301.7065915111
83308.6264090941
83293.4570703873
83284.2032314329
83283.8533242991
83287.5149454344
83291.7829459558
83295.4420943412
83292.5366649358
83290.4608566431
83286.2327634638
83290.2194693566
83324.1636869995
83322.6174221944
83323.2569149966
83324.8749082974
83356.4348813447
83358.1073492341
83365.1111006486
83319.1139421465
83318.7142046504
83322.5283109679
83324.4364953177
83287.2254871385
83284.0307201963
83280.5664787544
83284.0455474944
83274.9820288726
83272.6901100535
83278.452659782
83273.4410893946
83311.2487076478
83303.0238047708
83304.1437633949
83308.0453244897
83330.6205712029
83331.2241136625
83331.7970691081
83334.5697387739
83302.681966196
83300.0241818226
83295.0039716309
83299.0153233498
83295.1375870871
83289.7284107826
83287.2342633558
83291.9214959066
83283.6268259851
83279.230334313
83289.8127124874
83296.6874164103
83288.026427817
83286.2459710046
83283.891067098
83284.2200726098
83277.7791997152
83278.0306703237
83268.5084354243
83268.2159379719
83253.4050931691
83254.8853209696
83252.6365926165
83252.2942281264
83239.741377692
83240.9553272793
83225.3517688216
83225.0936449272
83199.985185318
83201.2170436096
83177.5541212114
83176.0003068781
83167.4537141391
83167.754994998
83152.9127381206
83150.6224446751
83135.075873185
83137.6558759455
83130.1680790876
83126.1885153598
83127.4400343328
83131.3930213355
83134.3687897299
83129.4016120051
83132.4479449583
83137.6906470321
83140.4345035779
83134.4726682548
83133.0540837796
83139.4387902796
83138.3148630616
83131.698174883
83126.1310619446
83133.2537771366
83129.4496996746
83122.1772806606
83114.9210405168
83122.4112539146
83119.686692291
83111.8784394216
83105.5649034999
83113.3015232878
83110.5475522854
83102.6741348164
83097.8054634593
83105.4434338616
83104.8976559047
83096.8123581859
83094.3243175791
83102.4199147141
83101.5283105755
83093.8053702885
83096.106666343
83103.902211543
83105.1941396404
83097.1604570838
83101.5482203569
83109.5181600223
83110.9924079576
83103.4069191018
83109.5019121436
83117.3448861663
83120.2772650114
83112.7952841873
83118.9699951028
83126.2912423472
83128.5976997488
83121.5294294991
83126.0737884914
83132.6683564735
83133.1130294493
83126.8332489797
83127.168451492
83133.0856415951
83129.7280254473
83124.4518351732
83121.3881872558
83126.3504542019
83123.2447072226
83119.2242307967
83117.7943218986
83121.8717475795
83131.3420739809
83128.7118868643
83146.2576560511
83148.5306246604
83165.484570663
83165.314671373
83175.6763702187
83177.1791887684
83205.7719948606
83205.0710476006
83223.9333027515
83226.4331176393
83244.2082744404
83242.0004676871
83271.084950005
83272.5556240011
83306.4671286217
83305.6692178184
83337.6943359818
83337.359197983
83339.8073861253
83339.5156882092
83301.895698611
83302.4732198006
83263.7358083976
83262.1529157724
83252.3342067993
83252.9946965919
83241.0819023387
83239.5263863929
83198.6504620368
83197.1662651571
83191.6996611223
83191.7524504387
83181.5499209957
83182.5964298123
83181.9920987166
83180.364021057
83190.0536661037
83191.2179963903
83205.0283481151
83204.3988010022
83215.5264732156
83216.9429531383
83229.3320583501
83227.9366908057
83234.3941374694
83236.9301321541
83244.1631953204
83241.7614427321
83243.595460647
83246.9738699979
83251.6960401532
83248.5338375813
83247.1696260304
83250.4696358556
83251.454067197
83247.902895883
83246.1311138283
83248.3168126614
83253.0043778299
83249.9096522887
83248.176299357
83251.7886776261
83248.232218934
83245.4156290538
83244.3476173715
83246.8778503686
83252.3483020074
83248.8054079632
83250.4143247962
83253.7019631066
83248.5862750439
83246.376214389
83248.3594316454
83251.4549850094
83253.3247462049
83250.2794642196
83253.0071851534
83256.4211256581
83252.680874504
83249.5866020638
83251.254831663
83254.3364750738
83252.8450352935
83249.3270429308
83248.8263917152
83251.3965597223
83244.7024975226
83241.8499600448
83236.2584713365
83237.9134780928
83225.6884789964
83224.0704889303
83213.3197203685
83214.0519833855
83200.9487528445
83199.6216548785
83190.1442368275
83191.3007751239
83189.9686993773
83189.4309048591
83197.5965313651
83197.4530515625
83201.7661259445
83203.1257857831
83244.239122076
83245.6489007538
83247.802139596
83246.1063944399
83253.1736133039
83253.8312902086
83256.7771747495
83253.8717351622
83264.8273974577
83265.9252974137
83284.0581809544
83280.8574497448
83305.3366935908
83305.2794178836
83326.3073440727
83323.9242389856
83346.7043441063
83346.4256480065
83362.3847547269
83359.9980758024
83374.8126916628
83375.5599199087
83384.6947402771
83382.0049856051
83387.8960358548
83389.7487381454
83395.3703961741
83392.7554937954
83402.4298037425
83405.1455405477
83406.2946364204
83403.2423382044
83399.4811593734
83403.0014841774
83404.0666165653
83400.6661167643
83411.5412841068
83415.3870035416
83415.0480011033
83410.8189859781
83399.5356018157
83403.3405812416
83402.8949532283
83399.153807926
83406.975351014
83411.2944945735
83409.3656625326
83406.0586415559
83396.309924425
83398.8244960726
83396.2817223481
83393.2011452394
83390.5986046615
83393.2825427138
83388.3926412874
83386.7617833692
83374.8860267874
83377.6758558409
83366.470453142
83365.7811172205
83350.9930344931
83353.2905875126
83336.9423237531
83337.2521185128
83315.1629171694
83317.2817646829
83295.5593648109
83295.6473398853
83269.5430498408
83272.8875486639
83255.796613127
83254.2435945549
83244.9798176685
83248.0105685899
83246.0398655019
83245.3803584315
83240.2528388056
83241.9652892375
83308.2070507555
83305.5407073756
83301.2950075852
83302.6998127732
83301.5566258968
83301.175114615
83346.4085343363
83346.62140558
83356.9929017931
83356.2772542553
83375.7833083884
83377.0022291738
83414.5362965882
83413.8231488116
83331.9120548993
83335.3824080689
83385.0724171966
83381.9402994502
83442.8157554489
83444.8701144795
83494.3608732508
83492.4304412006
83529.7816096735
83532.0844640473
83555.1993200204
83552.6537353678
83569.7031968688
83572.8360901233
83578.0985408669
83575.47248313
83578.757844293
83581.4782161993
83581.1673453995
83578.3140160235
83570.0673073879
83572.5136606992
83561.9538334087
83559.2035547817
83535.2208983115
83537.5467003691
83504.1494661685
83502.1407817997
83453.3712984461
83455.4547636643
83397.2036829148
83394.2195908147
83342.5403114458
83346.1104046072
83318.2666410427
83315.6238605498
83311.3537143178
83312.4735539964
83305.8145562874
83305.5656292577
83251.2437361522
83252.390356776
83264.2197166303
83263.9163614241
83273.0089441815
83273.8944003211
83280.098775925
83279.9284004129
83301.8920316356
83301.4577557997
83309.5370307476
83310.499591672
83307.3938939794
83307.5574673972
83305.9156615299
83306.0320065333
83346.4459717622
83345.4380141784
83354.4347132247
83354.4710592952
83367.130422083
83367.5261828357
83388.6345749024
83387.8357922062
83425.2295521822
83425.7351623607
83480.4040766875
83481.5157810493
83543.1366412071
83540.5614068542
83595.7194566963
83599.0606212993
83640.5248111286
83636.7384285164
83668.6087538101
83672.5218803686
83689.6391369768
83685.6183676161
83697.7558074133
83701.6143831641
83703.7410410467
83699.9186193815
83695.0336318199
83698.8488309095
83688.7427199831
83684.8881843208
83661.6361888727
83665.6607813911
83634.9903395773
83631.2660996342
83585.5615433267
83588.9771626841
83532.3646905798
83530.0092104408
83467.8243641397
83468.4437112423
83475.0612119209
83483.0650089983
83493.457747595
83509.4726100922
83520.3243512137
83513.6675746277
83500.4206388184
83490.0535442071
83475.3994874891
83462.2861959653
83453.1374069317
83444.9577090901
83442.5701254384
83440.6134335486
83443.6986322616
83445.3790679573
83452.4660367953
83460.8034130772
83469.2868728096
83475.6479868209
83474.3892994746
83467.1771366642
83444.2130422871
83403.954671349
83374.1220165872
83353.5194974765
83267.4372673818
83265.6116439053
83263.9297133362
83320.8847143933
83310.1578318921
83318.4408019472
83271.9182520396
83267.2740563111
83284.0845761998
83288.9115618915
83269.4894290559
83267.2590614358
83267.9776514968
83269.4697486077
83257.4350924808
83262.3123228874
83253.1597509139
83232.9410608012
83239.4165787899
83253.4145069472
83262.6924806237
83271.2508961382
83266.1106111365
83263.1682024897
83278.2989337348
83277.4383182305
83275.6493911482
83273.6044658661
83266.0743101684
83269.366546518
83261.1660381175
83256.4366820606
83249.8491917595
83254.6492157724
83245.5081496747
83241.5284707189
83245.0899558722
83252.75163926
83243.9117090732
83240.7033716691
83237.8569591025
83240.1121781945
83229.7735979066
83228.6977012387
83218.4025488275
83218.5938178658
83197.5439079193
83198.4264537814
83184.1466895892
83185.0596897698
83166.1643941938
83167.1160560665
83150.1125741884
83150.5664221773
83125.4724129793
83125.2054704859
83097.9895080423
83098.9730293148
83087.8585864216
83087.3654186014
83084.5573992268
83083.7139975298
83086.6104211645
83088.2023061019
83123.7127909209
83122.4232256067
83226.2796645857
83227.4119981812
83367.7959152714
83370.8284391659
83432.7180375969
83429.1198990347
83379.2469535038
83379.2076070029
83248.6041379092
83247.9232068189
83145.1285096001
83146.3142680904
83071.440461887
83070.9234403364
83016.3632298853
83016.5106129208
82975.1143975438
82975.078242212
82945.7674492501
82945.7800621491
82921.9168142477
82921.9674155424
82906.7815998053
82906.6040946265
82893.8401833641
82894.0117921334
82887.1055429151
82886.9312882828
82882.6231904399
82882.8676296333
82882.7021085835
82882.4711121768
82886.8811345989
82887.0881677809
82893.5557036404
82893.3389030651
82906.3063574142
82906.4745194839
82921.7623300527
82921.627672019
82945.5186233709
82945.5941804563
82975.3313441787
82975.3803832077
83017.1934306938
83016.839707219
83072.505411047
83073.2724602719
83149.5121825344
83148.1107466242
83252.5661371676
83253.5764673985
83384.4066669771
83384.6935884875
83429.7940792649
83433.2328456585
83365.4691008046
83362.8597804196
83222.1317405321
83220.5353107111
83118.9058908542
83120.6741219366
83088.1747687311
83086.4602025462
83085.255083557
83086.4124390121
83092.0456236069
83092.2513935813
83105.114524937
83104.5254889814
83136.3816307432
83137.0406116548
83153.5744401956
83155.0238913177
83177.0387596441
83178.0331110084
83182.0592673399
83182.2904315673
83198.5039247536
83198.0173953369
83213.7262342011
83214.7632192956
83196.4307162287
83193.9129358549
83173.3912692146
83175.794696019
83162.6906420447
83160.4041175531
83142.47185792
83142.5085622148
83110.9402691367