/*--------------------------------*- C++ -*----------------------------------*\
  =========                 |
  \\      /  F ield         | OpenFOAM: The Open Source CFD Toolbox
   \\    /   O peration     | Website:  https://openfoam.org
    \\  /    A nd           | Version:  13
     \\/     M anipulation  |
\*---------------------------------------------------------------------------*/
FoamFile
{
    format      ascii;
    class       volScalarField;
    location    "8";
    object      nuTilda;
}
// * * * * * * * * * * * * * * * * * * * * * * * * * * * * * * * * * * * * * //

dimensions      [0 2 -1 0 0 0 0];

internalField   nonuniform List<scalar> 
54636
(
0.0248107
0.0155791
0.0113675
0.00916902
0.00794427
0.00725524
0.00687456
0.00666913
0.00656063
0.00650367
0.00647297
0.00645462
0.00644113
0.00642878
0.00641603
0.00640289
0.00639067
0.00638083
0.00637823
0.00638512
0.00639859
0.00641602
0.00643272
0.00644583
0.00645511
0.00646069
0.00646371
0.00646514
0.00646537
0.00646507
0.00646459
0.00646392
0.00646335
0.006463
0.00646251
0.00646223
0.00646196
0.00646162
0.00646143
0.00646132
0.00646141
0.00646132
0.00646127
0.00646124
0.00646122
0.00646121
0.00646121
0.0064612
0.0064612
0.0064612
0.0064612
0.0064612
0.0064612
0.0064612
0.0064612
0.0064612
0.0064612
0.0064612
0.00646112
0.00645439
0.0407779
0.0344551
0.0301807
0.0272859
0.0253536
0.0240964
0.0233034
0.022819
0.0225302
0.0223605
0.0222585
0.0221918
0.0221413
0.0220998
0.0220629
0.0220354
0.0220186
0.0220112
0.0220144
0.0220323
0.0220607
0.0220958
0.0221296
0.0221577
0.0221785
0.0221929
0.0222023
0.0222078
0.0222111
0.0222127
0.0222131
0.0222133
0.0222125
0.0222121
0.0222116
0.0222111
0.0222107
0.0222103
0.02221
0.0222097
0.0222095
0.0222094
0.0222093
0.0222092
0.0222092
0.0222092
0.0222091
0.0222091
0.0222091
0.0222091
0.0222091
0.0222091
0.0222091
0.0222091
0.0222091
0.0222091
0.0222091
0.0222091
0.0222086
0.022182
0.0457899
0.0422236
0.0394278
0.0373353
0.0358373
0.0348114
0.0341367
0.0337087
0.0334455
0.033286
0.0331877
0.0331218
0.0330725
0.0330541
0.0330549
0.0330707
0.0330943
0.0331194
0.0331441
0.0331784
0.033215
0.0332333
0.0332341
0.0332234
0.0332072
0.0331908
0.0331765
0.0331654
0.0331573
0.0331515
0.0331474
0.0331444
0.0331422
0.0331405
0.0331393
0.0331384
0.0331377
0.0331372
0.0331367
0.0331365
0.0331363
0.0331361
0.0331359
0.0331358
0.0331358
0.0331357
0.0331357
0.0331357
0.0331357
0.0331357
0.0331357
0.0331357
0.0331357
0.0331357
0.0331357
0.0331357
0.0331357
0.0331357
0.033135
0.0331021
0.0477234
0.0456522
0.043925
0.0425695
0.0415641
0.0408558
0.0403793
0.0400715
0.0398792
0.0397618
0.03969
0.0396433
0.0396283
0.03989
0.0401889
0.0404295
0.0405968
0.0407172
0.0407838
0.040834
0.0408711
0.0406674
0.0404428
0.040233
0.0400575
0.0399223
0.0398248
0.0397583
0.0397149
0.0396873
0.0396702
0.0396599
0.0396535
0.0396495
0.0396471
0.0396456
0.0396445
0.0396438
0.0396433
0.039643
0.0396427
0.0396426
0.0396425
0.0396424
0.0396424
0.0396423
0.0396423
0.0396423
0.0396423
0.0396423
0.0396423
0.0396423
0.0396423
0.0396423
0.0396423
0.0396423
0.0396423
0.0396422
0.0396416
0.0396134
0.0485999
0.0472979
0.0461886
0.0453021
0.044635
0.0441594
0.0438365
0.0436265
0.0434948
0.0434152
0.0433685
0.0433462
0.0435337
0.0440527
0.0452241
0.0458551
0.0460747
0.0461926
0.0462281
0.0462108
0.0462092
0.0461046
0.0453443
0.044739
0.0442789
0.0439458
0.0437164
0.0435652
0.0434694
0.0434106
0.0433756
0.0433551
0.0433432
0.0433364
0.0433325
0.0433302
0.0433288
0.0433279
0.0433274
0.0433271
0.0433268
0.0433266
0.0433265
0.0433265
0.0433264
0.0433264
0.0433264
0.0433264
0.0433264
0.0433264
0.0433264
0.0433264
0.0433264
0.0433264
0.0433264
0.0433264
0.0433264
0.0433264
0.0433258
0.0433046
0.0490568
0.0481736
0.0474162
0.0468076
0.0463478
0.0460191
0.0457955
0.0456499
0.045559
0.0455048
0.0454751
0.0454824
0.0459053
0.047029
0.048406
0.0488543
0.0485865
0.0487
0.0489138
0.0486172
0.0485802
0.0480801
0.0474062
0.0468464
0.0464064
0.0460793
0.0458485
0.0456932
0.045593
0.0455306
0.0454928
0.0454706
0.0454577
0.0454503
0.045446
0.0454436
0.0454422
0.0454413
0.0454408
0.0454405
0.0454403
0.0454401
0.04544
0.04544
0.0454399
0.0454399
0.0454399
0.0454399
0.0454399
0.0454399
0.0454399
0.0454399
0.0454399
0.0454399
0.0454399
0.0454399
0.0454399
0.0454399
0.0454395
0.0454238
0.0493225
0.0486864
0.0481398
0.0477
0.0473677
0.0471302
0.0469688
0.0468639
0.0467985
0.0467599
0.0467391
0.0467487
0.0472031
0.0484295
0.0496049
0.0497499
0.0495819
0.0496053
0.0497426
0.0495722
0.0495143
0.0488194
0.048296
0.0478561
0.0475061
0.0472427
0.0470546
0.0469265
0.0468429
0.0467902
0.0467581
0.0467389
0.0467277
0.0467212
0.0467175
0.0467154
0.0467141
0.0467134
0.046713
0.0467127
0.0467125
0.0467124
0.0467123
0.0467123
0.0467123
0.0467122
0.0467122
0.0467122
0.0467122
0.0467122
0.0467122
0.0467122
0.0467122
0.0467122
0.0467122
0.0467122
0.0467122
0.0467122
0.0467119
0.0467002
0.0494901
0.0490108
0.0485985
0.0482669
0.0480164
0.0478376
0.0477162
0.0476374
0.0475884
0.0475595
0.0475439
0.0475498
0.0478957
0.0487618
0.0497363
0.0498069
0.0497661
0.0497332
0.049805
0.0497645
0.0496333
0.0491209
0.0487348
0.0484051
0.0481395
0.0479378
0.0477925
0.0476929
0.0476275
0.0475859
0.0475604
0.0475452
0.0475362
0.047531
0.047528
0.0475263
0.0475253
0.0475247
0.0475243
0.0475241
0.047524
0.0475239
0.0475238
0.0475238
0.0475238
0.0475238
0.0475238
0.0475238
0.0475238
0.0475237
0.0475237
0.0475237
0.0475237
0.0475237
0.0475237
0.0475237
0.0475237
0.0475237
0.0475235
0.0475145
0.0496025
0.0492286
0.0489069
0.0486481
0.0484528
0.0483135
0.0482191
0.0481579
0.0481199
0.0480975
0.0480857
0.0480857
0.0482454
0.0486535
0.0498034
0.0498209
0.0498188
0.0498176
0.0498192
0.0498187
0.0497187
0.049316
0.0490163
0.0487599
0.0485528
0.0483951
0.0482813
0.0482031
0.0481515
0.0481188
0.0480987
0.0480866
0.0480795
0.0480754
0.048073
0.0480717
0.0480709
0.0480704
0.0480701
0.04807
0.0480699
0.0480698
0.0480698
0.0480697
0.0480697
0.0480697
0.0480697
0.0480697
0.0480697
0.0480697
0.0480697
0.0480697
0.0480697
0.0480697
0.0480697
0.0480697
0.0480697
0.0480697
0.0480695
0.0480624
0.0496815
0.0493818
0.0491238
0.0489165
0.04876
0.0486485
0.048573
0.0485242
0.0484939
0.048476
0.0484668
0.048467
0.0485909
0.0488612
0.0498288
0.0498557
0.0498561
0.049856
0.0498557
0.0498561
0.0497765
0.0494534
0.0492131
0.0490075
0.0488414
0.0487147
0.0486234
0.0485606
0.0485192
0.048493
0.0484768
0.0484672
0.0484615
0.0484582
0.0484563
0.0484552
0.0484546
0.0484543
0.048454
0.0484539
0.0484538
0.0484538
0.0484537
0.0484537
0.0484537
0.0484537
0.0484537
0.0484537
0.0484537
0.0484537
0.0484537
0.0484537
0.0484537
0.0484537
0.0484537
0.0484537
0.0484537
0.0484537
0.0484535
0.0484478
0.0497391
0.0494935
0.0492822
0.0491123
0.0489842
0.048893
0.0488313
0.0487914
0.0487668
0.0487523
0.0487446
0.0487495
0.0489079
0.0493008
0.0498714
0.049882
0.0498825
0.0498815
0.0498799
0.0498822
0.0498182
0.0495539
0.049356
0.0491869
0.0490506
0.0489468
0.048872
0.0488207
0.048787
0.0487656
0.0487524
0.0487446
0.04874
0.0487373
0.0487358
0.048735
0.0487345
0.0487342
0.048734
0.0487339
0.0487339
0.0487338
0.0487338
0.0487338
0.0487338
0.0487338
0.0487338
0.0487338
0.0487338
0.0487338
0.0487338
0.0487338
0.0487338
0.0487338
0.0487338
0.0487338
0.0487338
0.0487338
0.0487336
0.0487289
0.0497824
0.0495776
0.0494013
0.0492596
0.0491528
0.0490768
0.0490255
0.0489923
0.0489718
0.0489598
0.0489535
0.0489573
0.0491201
0.0494903
0.0498898
0.0499305
0.0499045
0.049913
0.0499298
0.0499024
0.0498602
0.0496291
0.0494614
0.0493193
0.0492055
0.0491194
0.0490576
0.0490153
0.0489876
0.0489701
0.0489593
0.0489529
0.0489492
0.0489471
0.0489459
0.0489452
0.0489448
0.0489446
0.0489444
0.0489444
0.0489443
0.0489443
0.0489443
0.0489442
0.0489442
0.0489442
0.0489442
0.0489442
0.0489442
0.0489442
0.0489442
0.0489442
0.0489442
0.0489442
0.0489442
0.0489442
0.0489442
0.0489442
0.0489441
0.0489402
0.0498158
0.0496423
0.049493
0.0493731
0.0492827
0.0492185
0.049175
0.049147
0.0491297
0.0491194
0.0491138
0.0491138
0.0491818
0.0493799
0.0498735
0.0498822
0.0498381
0.0498765
0.0498822
0.049841
0.049845
0.0496521
0.0495195
0.0494062
0.0493153
0.0492463
0.0491968
0.049163
0.0491408
0.0491268
0.0491183
0.0491132
0.0491102
0.0491085
0.0491076
0.0491071
0.0491068
0.0491066
0.0491065
0.0491064
0.0491064
0.0491064
0.0491064
0.0491063
0.0491063
0.0491063
0.0491063
0.0491063
0.0491063
0.0491063
0.0491063
0.0491063
0.0491063
0.0491063
0.0491063
0.0491063
0.0491063
0.0491063
0.0491062
0.0491029
0.049842
0.0496933
0.0495652
0.0494624
0.0493849
0.0493299
0.0492927
0.0492687
0.0492538
0.0492449
0.0492398
0.0492376
0.0492502
0.0493797
0.0496327
0.0497426
0.0496476
0.0496861
0.0497424
0.0497435
0.0497411
0.0496114
0.0495195
0.0494416
0.0493791
0.0493315
0.0492972
0.0492736
0.0492581
0.0492483
0.0492423
0.0492387
0.0492366
0.0492354
0.0492347
0.0492343
0.0492341
0.049234
0.0492339
0.0492339
0.0492338
0.0492338
0.0492338
0.0492338
0.0492338
0.0492338
0.0492338
0.0492338
0.0492338
0.0492338
0.0492338
0.0492338
0.0492338
0.0492338
0.0492338
0.0492338
0.0492338
0.0492338
0.0492337
0.0492308
0.049863
0.049734
0.049623
0.0495338
0.0494667
0.0494189
0.0493867
0.0493659
0.0493529
0.0493451
0.0493406
0.0493381
0.0493389
0.049366
0.0494071
0.0494376
0.049444
0.0494566
0.0494658
0.049472
0.0494751
0.0494594
0.0494384
0.0494161
0.0493954
0.0493779
0.0493643
0.0493543
0.0493475
0.0493429
0.04934
0.0493382
0.0493371
0.0493365
0.0493361
0.0493359
0.0493358
0.0493357
0.0493356
0.0493356
0.0493356
0.0493356
0.0493356
0.0493356
0.0493356
0.0493356
0.0493356
0.0493356
0.0493356
0.0493356
0.0493356
0.0493356
0.0493356
0.0493356
0.0493356
0.0493356
0.0493356
0.0493356
0.0493355
0.049333
0.0498801
0.0497671
0.0496697
0.0495914
0.0495324
0.0494903
0.0494619
0.0494435
0.049432
0.0494251
0.049421
0.0494186
0.0494176
0.0494199
0.0494258
0.0494324
0.0494368
0.0494404
0.0494432
0.0494451
0.0494464
0.0494454
0.0494425
0.0494384
0.0494339
0.0494295
0.0494259
0.049423
0.0494208
0.0494193
0.0494183
0.0494176
0.0494172
0.0494169
0.0494168
0.0494167
0.0494166
0.0494166
0.0494165
0.0494165
0.0494165
0.0494165
0.0494165
0.0494165
0.0494165
0.0494165
0.0494165
0.0494165
0.0494165
0.0494165
0.0494165
0.0494165
0.0494165
0.0494165
0.0494165
0.0494165
0.0494165
0.0494165
0.0494164
0.0494142
0.049894
0.0497935
0.0497065
0.0496359
0.0495821
0.0495434
0.049517
0.0494996
0.0494886
0.0494819
0.0494779
0.0494756
0.0494743
0.0494739
0.0494744
0.0494756
0.0494768
0.0494778
0.0494786
0.0494791
0.0494794
0.0494793
0.0494789
0.0494783
0.0494774
0.0494766
0.0494758
0.0494751
0.0494746
0.0494742
0.0494739
0.0494737
0.0494735
0.0494734
0.0494734
0.0494733
0.0494733
0.0494733
0.0494733
0.0494732
0.0494732
0.0494732
0.0494732
0.0494732
0.0494732
0.0494732
0.0494732
0.0494732
0.0494732
0.0494732
0.0494732
0.0494732
0.0494732
0.0494732
0.0494732
0.0494732
0.0494732
0.0494732
0.0494732
0.0494711
0.0499041
0.0498113
0.0497287
0.0496597
0.0496054
0.049565
0.0495364
0.0495171
0.0495045
0.0494966
0.0494918
0.0494889
0.0494872
0.0494863
0.049486
0.0494868
0.0494876
0.0494883
0.0494888
0.0494885
0.0494881
0.0494878
0.0494874
0.0494871
0.0494868
0.0494865
0.0494863
0.0494861
0.0494859
0.0494858
0.0494857
0.0494856
0.0494856
0.0494855
0.0494855
0.0494855
0.0494855
0.0494854
0.0494854
0.0494854
0.0494854
0.0494854
0.0494854
0.0494854
0.0494854
0.0494854
0.0494854
0.0494854
0.0494854
0.0494854
0.0494854
0.0494854
0.0494854
0.0494854
0.0494854
0.0494854
0.0494854
0.0494854
0.0494853
0.0494835
0.0248125
0.0155887
0.0113937
0.00921944
0.00802194
0.00735857
0.0069985
0.00680777
0.006709
0.00665813
0.00663119
0.00661527
0.00660348
0.00659236
0.00658043
0.00656775
0.00655574
0.00654593
0.00654251
0.00654763
0.00655925
0.00657561
0.00659183
0.00660494
0.00661477
0.00662044
0.006624
0.00662564
0.00662615
0.00662613
0.00662583
0.00662518
0.00662487
0.0066245
0.00662403
0.0066238
0.0066236
0.00662328
0.00662314
0.00662301
0.00662311
0.00662303
0.00662298
0.00662295
0.00662293
0.00662293
0.00662292
0.00662292
0.00662292
0.00662292
0.00662292
0.00662292
0.00662292
0.00662292
0.00662292
0.00662292
0.00662292
0.00662292
0.00662283
0.00661572
0.0407892
0.0344997
0.0302824
0.0274617
0.025609
0.0244264
0.023696
0.0232592
0.0230045
0.0228581
0.0227719
0.0227163
0.0226733
0.0226359
0.0226006
0.0225735
0.0225565
0.022548
0.0225482
0.0225612
0.0225844
0.0226162
0.0226486
0.022677
0.0226989
0.0227147
0.0227252
0.022732
0.0227364
0.0227388
0.0227397
0.0227403
0.02274
0.0227397
0.0227394
0.022739
0.0227387
0.0227383
0.0227382
0.0227379
0.0227377
0.0227376
0.0227375
0.0227374
0.0227374
0.0227374
0.0227374
0.0227373
0.0227373
0.0227373
0.0227373
0.0227373
0.0227373
0.0227373
0.0227373
0.0227373
0.0227373
0.0227373
0.0227368
0.0227089
0.0458029
0.0422742
0.0395413
0.0375283
0.0361144
0.0351659
0.0345556
0.0341773
0.0339499
0.0338158
0.0337356
0.0336834
0.0336438
0.0336289
0.0336292
0.0336417
0.0336622
0.0336818
0.0336988
0.0337238
0.0337506
0.0337641
0.0337654
0.0337579
0.0337464
0.0337349
0.0337251
0.0337177
0.0337123
0.0337086
0.0337058
0.0337039
0.0337023
0.0337011
0.0337001
0.0336995
0.0336989
0.0336984
0.0336981
0.0336978
0.0336977
0.0336975
0.0336974
0.0336973
0.0336973
0.0336972
0.0336972
0.0336972
0.0336972
0.0336972
0.0336972
0.0336972
0.0336972
0.0336972
0.0336972
0.0336972
0.0336972
0.0336972
0.0336965
0.033663
0.0477334
0.0456918
0.0440146
0.0427227
0.0417842
0.0411377
0.0407126
0.0404445
0.0402812
0.040185
0.0401311
0.0401005
0.040096
0.0403583
0.0406461
0.0408683
0.0410277
0.0411246
0.0411756
0.0412118
0.0412347
0.0410256
0.0408073
0.0406089
0.0404471
0.0403257
0.0402405
0.0401839
0.0401478
0.0401255
0.040112
0.0401039
0.040099
0.0400959
0.040094
0.0400928
0.040092
0.0400914
0.0400909
0.0400907
0.0400905
0.0400903
0.0400903
0.0400902
0.0400901
0.0400901
0.0400901
0.0400901
0.0400901
0.0400901
0.0400901
0.0400901
0.0400901
0.0400901
0.0400901
0.0400901
0.0400901
0.0400901
0.0400894
0.0400613
0.0486069
0.0473259
0.0462526
0.0454122
0.0447936
0.0443629
0.0440774
0.0438961
0.0437858
0.0437236
0.0436941
0.0436985
0.0439316
0.0445335
0.0457073
0.0462538
0.0464358
0.0465546
0.0465582
0.0465454
0.0465597
0.0463276
0.045557
0.0449566
0.0445111
0.0441972
0.0439868
0.043852
0.0437688
0.0437191
0.04369
0.0436734
0.043664
0.0436586
0.0436555
0.0436538
0.0436527
0.043652
0.0436515
0.0436513
0.0436511
0.0436509
0.0436508
0.0436508
0.0436507
0.0436507
0.0436507
0.0436507
0.0436507
0.0436507
0.0436507
0.0436507
0.0436507
0.0436507
0.0436507
0.0436507
0.0436507
0.0436507
0.0436502
0.0436293
0.0490617
0.0481936
0.0474619
0.0468864
0.0464615
0.0461651
0.0459682
0.0458433
0.0457677
0.0457254
0.045708
0.0457383
0.0462607
0.0475865
0.0489628
0.0490374
0.0487948
0.0489629
0.0490739
0.0488357
0.0490171
0.0482641
0.0475536
0.0469837
0.0465508
0.0462391
0.0460259
0.0458867
0.0457993
0.0457462
0.0457149
0.0456968
0.0456865
0.0456806
0.0456773
0.0456754
0.0456743
0.0456736
0.0456732
0.0456729
0.0456728
0.0456727
0.0456726
0.0456725
0.0456725
0.0456725
0.0456725
0.0456725
0.0456724
0.0456724
0.0456724
0.0456724
0.0456724
0.0456724
0.0456724
0.0456724
0.0456724
0.0456724
0.0456721
0.0456568
0.0493261
0.0487011
0.0481735
0.0477581
0.0474516
0.0472378
0.047096
0.0470061
0.0469515
0.0469205
0.046906
0.0469244
0.0474567
0.0488918
0.049887
0.0498797
0.0498074
0.0498232
0.0498727
0.049807
0.0497722
0.0489072
0.0483759
0.0479375
0.0475979
0.0473496
0.0471774
0.0470634
0.046991
0.0469464
0.0469198
0.0469043
0.0468954
0.0468903
0.0468874
0.0468857
0.0468847
0.0468842
0.0468838
0.0468836
0.0468835
0.0468834
0.0468833
0.0468833
0.0468832
0.0468832
0.0468832
0.0468832
0.0468832
0.0468832
0.0468832
0.0468832
0.0468832
0.0468832
0.0468832
0.0468832
0.0468832
0.0468832
0.0468829
0.0468716
0.0494929
0.049022
0.0486243
0.0483112
0.0480803
0.0479195
0.047813
0.0477455
0.0477044
0.0476806
0.0476682
0.0476782
0.0480876
0.0492098
0.0498962
0.0498705
0.0497723
0.0498166
0.0498697
0.0497695
0.0497875
0.0491831
0.0487923
0.048464
0.0482066
0.0480167
0.047884
0.0477956
0.047739
0.047704
0.0476829
0.0476706
0.0476634
0.0476593
0.047657
0.0476556
0.0476549
0.0476544
0.0476541
0.047654
0.0476539
0.0476538
0.0476537
0.0476537
0.0476537
0.0476537
0.0476537
0.0476537
0.0476537
0.0476537
0.0476537
0.0476537
0.0476537
0.0476537
0.0476537
0.0476537
0.0476537
0.0476536
0.0476534
0.0476447
0.0496047
0.0492374
0.0489271
0.048683
0.048503
0.0483779
0.048295
0.0482426
0.0482106
0.0481919
0.048182
0.0481882
0.0484478
0.0492272
0.0498635
0.0498565
0.0498235
0.0498306
0.0498536
0.0498214
0.0498328
0.0493643
0.049061
0.0488057
0.048605
0.0484566
0.0483527
0.0482832
0.0482387
0.0482111
0.0481945
0.0481848
0.0481791
0.0481759
0.048174
0.048173
0.0481723
0.048172
0.0481718
0.0481716
0.0481716
0.0481715
0.0481715
0.0481714
0.0481714
0.0481714
0.0481714
0.0481714
0.0481714
0.0481714
0.0481714
0.0481714
0.0481714
0.0481714
0.0481714
0.0481714
0.0481714
0.0481714
0.0481712
0.0481644
0.0496833
0.0493888
0.0491401
0.0489445
0.0488004
0.0487003
0.0486341
0.0485922
0.0485667
0.0485518
0.048544
0.0485494
0.048749
0.0493312
0.0498604
0.0498629
0.0498587
0.0498591
0.0498597
0.0498572
0.0498666
0.0494917
0.0492485
0.0490439
0.048883
0.048764
0.0486806
0.0486249
0.0485892
0.0485671
0.0485538
0.048546
0.0485415
0.0485389
0.0485374
0.0485366
0.0485361
0.0485358
0.0485357
0.0485356
0.0485355
0.0485355
0.0485354
0.0485354
0.0485354
0.0485354
0.0485354
0.0485354
0.0485354
0.0485354
0.0485354
0.0485354
0.0485354
0.0485354
0.0485354
0.0485354
0.0485354
0.0485354
0.0485352
0.0485297
0.0497406
0.0494994
0.0492956
0.0491354
0.0490174
0.0489355
0.0488815
0.0488473
0.0488266
0.0488146
0.0488083
0.0488143
0.0490265
0.049561
0.049929
0.0499192
0.0498866
0.0498957
0.0499177
0.049885
0.0498918
0.0495845
0.0493841
0.049216
0.0490843
0.048987
0.0489189
0.0488735
0.0488444
0.0488264
0.0488156
0.0488093
0.0488057
0.0488036
0.0488024
0.0488017
0.0488013
0.0488011
0.048801
0.0488009
0.0488009
0.0488008
0.0488008
0.0488008
0.0488008
0.0488008
0.0488008
0.0488008
0.0488008
0.0488008
0.0488008
0.0488008
0.0488008
0.0488008
0.0488008
0.0488008
0.0488008
0.0488008
0.0488007
0.0487961
0.0497836
0.0495824
0.0494125
0.0492789
0.0491806
0.0491124
0.0490674
0.049039
0.0490218
0.0490119
0.049007
0.0490125
0.0492026
0.0496821
0.0499867
0.0499487
0.0499077
0.0499374
0.0499471
0.0499059
0.0499297
0.0496561
0.0494849
0.0493436
0.0492338
0.0491531
0.0490969
0.0490596
0.0490357
0.049021
0.0490122
0.049007
0.0490041
0.0490024
0.0490014
0.0490009
0.0490006
0.0490004
0.0490003
0.0490003
0.0490002
0.0490002
0.0490002
0.0490002
0.0490002
0.0490002
0.0490002
0.0490002
0.0490002
0.0490002
0.0490002
0.0490002
0.0490002
0.0490002
0.0490002
0.0490002
0.0490002
0.0490002
0.0490001
0.0489963
0.0498168
0.0496464
0.0495025
0.0493895
0.0493063
0.0492486
0.0492106
0.0491866
0.049172
0.0491635
0.0491587
0.0491604
0.0492893
0.0496337
0.0499756
0.0499468
0.0499201
0.0499254
0.0499463
0.0499209
0.0499537
0.0496875
0.0495468
0.0494316
0.0493423
0.049277
0.0492315
0.0492014
0.0491821
0.0491703
0.0491632
0.0491591
0.0491568
0.0491554
0.0491547
0.0491543
0.0491541
0.0491539
0.0491538
0.0491538
0.0491538
0.0491538
0.0491537
0.0491537
0.0491537
0.0491537
0.0491537
0.0491537
0.0491537
0.0491537
0.0491537
0.0491537
0.0491537
0.0491537
0.0491537
0.0491537
0.0491537
0.0491537
0.0491536
0.0491504
0.0498429
0.0496968
0.0495734
0.0494764
0.0494052
0.0493557
0.0493232
0.0493026
0.0492901
0.0492827
0.0492783
0.0492761
0.0493064
0.0494582
0.049711
0.0497743
0.0497582
0.0497643
0.0497798
0.0497719
0.0497861
0.0496364
0.049543
0.0494657
0.0494052
0.0493604
0.049329
0.049308
0.0492945
0.0492862
0.0492812
0.0492783
0.0492766
0.0492757
0.0492752
0.0492749
0.0492747
0.0492746
0.0492745
0.0492745
0.0492745
0.0492745
0.0492745
0.0492745
0.0492745
0.0492745
0.0492745
0.0492745
0.0492745
0.0492745
0.0492745
0.0492745
0.0492745
0.0492745
0.0492745
0.0492745
0.0492745
0.0492745
0.0492744
0.0492716
0.0498638
0.0497371
0.0496301
0.049546
0.0494843
0.0494414
0.0494132
0.0493954
0.0493845
0.0493781
0.0493742
0.0493719
0.0493742
0.0494006
0.0494386
0.0494669
0.0494817
0.0494908
0.0494966
0.0495002
0.0495017
0.0494856
0.0494648
0.0494431
0.0494235
0.0494074
0.0493952
0.0493865
0.0493806
0.0493768
0.0493744
0.049373
0.0493721
0.0493716
0.0493713
0.0493711
0.049371
0.049371
0.0493709
0.0493709
0.0493709
0.0493709
0.0493709
0.0493709
0.0493709
0.0493709
0.0493709
0.0493709
0.0493709
0.0493709
0.0493709
0.0493709
0.0493709
0.0493709
0.0493709
0.0493709
0.0493709
0.0493709
0.0493708
0.0493684
0.0498808
0.0497698
0.049676
0.0496022
0.0495479
0.0495101
0.0494852
0.0494695
0.0494599
0.0494542
0.0494509
0.0494488
0.0494482
0.0494506
0.0494567
0.0494632
0.0494681
0.0494715
0.0494739
0.0494748
0.0494751
0.0494737
0.0494707
0.0494668
0.0494626
0.0494587
0.0494555
0.049453
0.0494512
0.0494499
0.0494491
0.0494486
0.0494482
0.049448
0.0494479
0.0494478
0.0494478
0.0494478
0.0494477
0.0494477
0.0494477
0.0494477
0.0494477
0.0494477
0.0494477
0.0494477
0.0494477
0.0494477
0.0494477
0.0494477
0.0494477
0.0494477
0.0494477
0.0494477
0.0494477
0.0494477
0.0494477
0.0494477
0.0494476
0.0494455
0.0498945
0.0497959
0.049712
0.0496454
0.049596
0.0495613
0.0495381
0.0495233
0.0495141
0.0495086
0.0495054
0.0495035
0.0495026
0.0495024
0.0495037
0.0495051
0.0495064
0.0495074
0.0495082
0.049508
0.0495077
0.0495074
0.0495069
0.0495062
0.0495054
0.0495047
0.049504
0.0495035
0.049503
0.0495027
0.0495025
0.0495023
0.0495022
0.0495021
0.0495021
0.049502
0.049502
0.049502
0.049502
0.049502
0.049502
0.049502
0.049502
0.049502
0.049502
0.049502
0.049502
0.049502
0.049502
0.049502
0.049502
0.049502
0.049502
0.049502
0.049502
0.049502
0.049502
0.049502
0.0495019
0.0494999
0.0499046
0.0498133
0.0497335
0.0496681
0.0496179
0.0495815
0.0495564
0.0495398
0.0495292
0.0495227
0.0495188
0.0495166
0.0495154
0.0495149
0.0495152
0.0495157
0.0495163
0.0495168
0.0495172
0.0495169
0.0495164
0.049516
0.0495156
0.0495153
0.0495151
0.0495149
0.0495147
0.0495146
0.0495144
0.0495143
0.0495143
0.0495142
0.0495141
0.0495141
0.0495141
0.0495141
0.0495141
0.049514
0.049514
0.049514
0.049514
0.049514
0.049514
0.049514
0.049514
0.049514
0.049514
0.049514
0.049514
0.049514
0.049514
0.049514
0.049514
0.049514
0.049514
0.049514
0.049514
0.049514
0.049514
0.0495121
0.0248128
0.0155901
0.0113972
0.00922643
0.00803263
0.00737286
0.0070159
0.00682768
0.00673081
0.0066814
0.00665562
0.00664075
0.00663005
0.00662006
0.00660914
0.00659734
0.00658599
0.00657662
0.00657259
0.00657594
0.00658571
0.00660058
0.00661584
0.0066286
0.00663815
0.00664387
0.00664729
0.00664892
0.00664943
0.00664954
0.00664919
0.00664879
0.00664841
0.00664818
0.0066477
0.0066475
0.00664733
0.00664704
0.00664691
0.0066468
0.00664691
0.00664683
0.00664678
0.00664676
0.00664674
0.00664673
0.00664673
0.00664673
0.00664673
0.00664673
0.00664673
0.00664673
0.00664673
0.00664673
0.00664673
0.00664673
0.00664673
0.00664673
0.00664664
0.00663951
0.0407915
0.0345083
0.0303029
0.0274984
0.0256637
0.0244988
0.0237839
0.0233596
0.0231146
0.0229755
0.0228952
0.0228443
0.0228054
0.0227706
0.0227376
0.0227119
0.0226955
0.0226865
0.0226849
0.022693
0.0227114
0.0227397
0.0227706
0.022798
0.0228199
0.0228357
0.0228466
0.0228539
0.0228585
0.0228612
0.0228624
0.0228631
0.0228631
0.022863
0.0228628
0.0228624
0.0228623
0.0228619
0.0228618
0.0228615
0.0228613
0.0228612
0.0228612
0.0228611
0.0228611
0.0228611
0.0228611
0.0228611
0.0228611
0.0228611
0.0228611
0.0228611
0.0228611
0.0228611
0.0228611
0.0228611
0.0228611
0.0228611
0.0228605
0.0228325
0.0458057
0.0422853
0.0395671
0.0375738
0.036182
0.0352546
0.0346627
0.0342993
0.0340835
0.0339584
0.0338861
0.0338406
0.0338057
0.033792
0.0337938
0.0338059
0.0338245
0.0338414
0.0338547
0.0338704
0.0338899
0.0339003
0.0339018
0.0338957
0.0338862
0.0338769
0.0338691
0.0338635
0.0338593
0.0338568
0.0338548
0.0338534
0.0338522
0.0338512
0.0338505
0.03385
0.0338495
0.0338491
0.0338488
0.0338486
0.0338484
0.0338483
0.0338482
0.0338481
0.0338481
0.033848
0.033848
0.033848
0.033848
0.033848
0.033848
0.033848
0.033848
0.033848
0.033848
0.033848
0.033848
0.033848
0.0338473
0.0338139
0.0477356
0.0457009
0.0440362
0.0427611
0.0418412
0.0412126
0.0408032
0.0405477
0.0403946
0.0403086
0.0402653
0.040246
0.0402472
0.0404961
0.0407856
0.0409968
0.0411428
0.0412295
0.041272
0.0412966
0.0413132
0.0411078
0.0408965
0.040705
0.0405496
0.0404343
0.0403543
0.0403019
0.0402691
0.0402491
0.0402371
0.0402301
0.0402259
0.0402233
0.0402217
0.0402206
0.0402199
0.0402194
0.0402191
0.0402188
0.0402186
0.0402185
0.0402185
0.0402184
0.0402184
0.0402183
0.0402183
0.0402183
0.0402183
0.0402183
0.0402183
0.0402183
0.0402183
0.0402183
0.0402183
0.0402183
0.0402183
0.0402183
0.0402176
0.0401898
0.0486085
0.0473325
0.0462685
0.0454404
0.0448358
0.0444186
0.0441448
0.0439729
0.0438709
0.0438155
0.0437945
0.0438152
0.0440558
0.0446644
0.045839
0.0463301
0.0464765
0.0465563
0.0465684
0.0465655
0.0465962
0.0463739
0.0456064
0.0450105
0.0445712
0.0442645
0.0440612
0.0439325
0.0438542
0.043808
0.0437815
0.0437665
0.0437582
0.0437534
0.0437508
0.0437492
0.0437483
0.0437477
0.0437473
0.0437471
0.0437469
0.0437467
0.0437467
0.0437466
0.0437466
0.0437466
0.0437466
0.0437465
0.0437465
0.0437465
0.0437465
0.0437465
0.0437465
0.0437465
0.0437465
0.0437465
0.0437465
0.0437465
0.043746
0.0437255
0.0490628
0.0481983
0.0474734
0.0469069
0.0464922
0.0462055
0.0460172
0.045899
0.0458288
0.0457915
0.0457805
0.0458273
0.0463791
0.0477042
0.0490044
0.0490447
0.0488019
0.0489547
0.0490572
0.0488438
0.0492022
0.0483162
0.0475928
0.0470193
0.0465883
0.0462816
0.0460745
0.045941
0.0458584
0.0458089
0.0457801
0.0457637
0.0457545
0.0457493
0.0457464
0.0457448
0.0457438
0.0457432
0.0457428
0.0457426
0.0457425
0.0457424
0.0457423
0.0457423
0.0457422
0.0457422
0.0457422
0.0457422
0.0457422
0.0457422
0.0457422
0.0457422
0.0457422
0.0457422
0.0457422
0.0457422
0.0457422
0.0457422
0.0457418
0.0457269
0.0493269
0.0487046
0.048182
0.0477733
0.0474743
0.0472677
0.0471322
0.0470471
0.0469962
0.0469679
0.0469557
0.0469781
0.0475238
0.0490441
0.049837
0.0497596
0.0496521
0.0496771
0.049758
0.0496529
0.0499207
0.048911
0.0483836
0.0479505
0.0476172
0.0473756
0.0472098
0.0471013
0.0470332
0.0469919
0.0469675
0.0469535
0.0469455
0.046941
0.0469385
0.046937
0.0469362
0.0469357
0.0469353
0.0469352
0.046935
0.046935
0.0469349
0.0469349
0.0469349
0.0469348
0.0469348
0.0469348
0.0469348
0.0469348
0.0469348
0.0469348
0.0469348
0.0469348
0.0469348
0.0469348
0.0469348
0.0469348
0.0469345
0.0469234
0.0494935
0.0490246
0.0486307
0.0483228
0.0480977
0.0479424
0.0478406
0.0477767
0.0477381
0.0477156
0.0477029
0.0477102
0.0481289
0.0492643
0.0496024
0.0494631
0.049419
0.0494265
0.0494164
0.0494157
0.0497384
0.0491841
0.0487962
0.0484722
0.0482199
0.0480354
0.0479079
0.0478239
0.0477708
0.0477384
0.0477191
0.047708
0.0477016
0.0476979
0.0476959
0.0476947
0.0476941
0.0476937
0.0476934
0.0476933
0.0476932
0.0476931
0.0476931
0.047693
0.047693
0.047693
0.047693
0.047693
0.047693
0.047693
0.047693
0.047693
0.047693
0.047693
0.047693
0.047693
0.047693
0.047693
0.0476928
0.0476843
0.0496052
0.0492395
0.0489322
0.0486921
0.0485167
0.0483958
0.0483167
0.048267
0.0482368
0.0482189
0.0482081
0.0482119
0.0485381
0.049384
0.0496831
0.0495641
0.049523
0.0495096
0.0494917
0.0495054
0.0497959
0.0493657
0.0490644
0.0488122
0.0486154
0.0484712
0.0483713
0.0483054
0.0482636
0.0482381
0.0482229
0.0482141
0.0482091
0.0482062
0.0482046
0.0482036
0.0482031
0.0482028
0.0482026
0.0482025
0.0482024
0.0482023
0.0482023
0.0482023
0.0482023
0.0482023
0.0482023
0.0482023
0.0482023
0.0482023
0.0482023
0.0482023
0.0482023
0.0482023
0.0482023
0.0482023
0.0482023
0.0482022
0.0482021
0.0481954
0.0496837
0.0493905
0.0491442
0.0489519
0.0488114
0.0487147
0.0486515
0.0486119
0.0485878
0.0485734
0.048565
0.0485691
0.0488328
0.049502
0.0497493
0.0496577
0.0496205
0.0496058
0.0495921
0.0496
0.0498375
0.0494925
0.049251
0.0490489
0.0488912
0.0487756
0.0486955
0.0486427
0.0486093
0.0485888
0.0485767
0.0485696
0.0485656
0.0485633
0.048562
0.0485613
0.0485608
0.0485606
0.0485604
0.0485603
0.0485603
0.0485602
0.0485602
0.0485602
0.0485602
0.0485602
0.0485602
0.0485602
0.0485602
0.0485602
0.0485602
0.0485602
0.0485602
0.0485602
0.0485602
0.0485602
0.0485602
0.0485602
0.04856
0.0485546
0.0497409
0.0495008
0.049299
0.0491414
0.0490265
0.0489474
0.0488958
0.0488635
0.048844
0.0488325
0.0488261
0.0488303
0.049055
0.0496016
0.0497958
0.0497178
0.0496975
0.0496929
0.0496777
0.0496871
0.0498687
0.0495846
0.0493856
0.0492199
0.0490909
0.0489964
0.0489311
0.0488881
0.0488609
0.0488442
0.0488344
0.0488287
0.0488254
0.0488236
0.0488225
0.048822
0.0488216
0.0488214
0.0488213
0.0488213
0.0488212
0.0488212
0.0488212
0.0488211
0.0488211
0.0488211
0.0488211
0.0488211
0.0488211
0.0488211
0.0488211
0.0488211
0.0488211
0.0488211
0.0488211
0.0488211
0.0488211
0.0488211
0.048821
0.0488166
0.0497839
0.0495836
0.0494153
0.049284
0.0491881
0.0491223
0.0490793
0.0490525
0.0490364
0.0490271
0.0490223
0.0490277
0.0492182
0.0496801
0.0498943
0.0498264
0.0497919
0.0498222
0.0498154
0.0497904
0.049922
0.049656
0.0494866
0.0493473
0.0492397
0.0491614
0.0491074
0.0490719
0.0490496
0.0490359
0.0490279
0.0490232
0.0490206
0.0490191
0.0490183
0.0490178
0.0490175
0.0490174
0.0490173
0.0490173
0.0490172
0.0490172
0.0490172
0.0490172
0.0490172
0.0490172
0.0490172
0.0490172
0.0490172
0.0490172
0.0490172
0.0490172
0.0490172
0.0490172
0.0490172
0.0490172
0.0490172
0.0490172
0.0490171
0.0490133
0.049817
0.0496474
0.0495049
0.0493938
0.0493127
0.049257
0.0492207
0.0491981
0.0491844
0.0491763
0.0491715
0.0491726
0.0493293
0.0497213
0.0499864
0.0499393
0.0499097
0.0499171
0.0499379
0.0499102
0.0499799
0.0496929
0.0495523
0.0494376
0.0493493
0.0492853
0.0492412
0.0492124
0.0491942
0.0491832
0.0491767
0.0491729
0.0491708
0.0491696
0.049169
0.0491686
0.0491684
0.0491683
0.0491682
0.0491682
0.0491682
0.0491682
0.0491681
0.0491681
0.0491681
0.0491681
0.0491681
0.0491681
0.0491681
0.0491681
0.0491681
0.0491681
0.0491681
0.0491681
0.0491681
0.0491681
0.0491681
0.0491681
0.049168
0.0491649
0.0498431
0.0496977
0.0495755
0.0494801
0.0494107
0.049363
0.0493319