/*--------------------------------*- C++ -*----------------------------------*\
  =========                 |
  \\      /  F ield         | OpenFOAM: The Open Source CFD Toolbox
   \\    /   O peration     | Website:  https://openfoam.org
    \\  /    A nd           | Version:  13
     \\/     M anipulation  |
\*---------------------------------------------------------------------------*/
FoamFile
{
    format      ascii;
    class       volScalarField;
    location    "8";
    object      p;
}
// * * * * * * * * * * * * * * * * * * * * * * * * * * * * * * * * * * * * * //

dimensions      [0 2 -2 0 0 0 0];

internalField   nonuniform List<scalar> 
54636
(
-9.51557e-13
-9.58979e-13
-9.77245e-13
-9.81943e-13
-9.8653e-13
-1.02555e-12
-9.91995e-13
-9.86768e-13
-1.02866e-12
-1.02184e-12
-9.73573e-13
-9.77914e-13
-9.47847e-13
-9.51041e-13
-9.33302e-13
-9.3342e-13
-9.37411e-13
-9.01764e-13
-8.892e-13
-9.33653e-13
-9.52371e-13
-9.39109e-13
-9.1865e-13
-8.98581e-13
-9.13446e-13
-9.42475e-13
-9.75583e-13
-9.60147e-13
-9.80279e-13
-9.63646e-13
-9.96851e-13
-1.00251e-12
-1.02079e-12
-1.08325e-12
-1.06833e-12
-1.11473e-12
-1.12992e-12
-1.06877e-12
-1.03628e-12
-9.98076e-13
-9.27285e-13
-9.41929e-13
-9.51216e-13
-8.98746e-13
-8.81697e-13
-8.45095e-13
-8.02714e-13
-7.26959e-13
-6.72562e-13
-6.2291e-13
-5.52893e-13
-4.71732e-13
-4.05471e-13
-3.41145e-13
-3.02303e-13
-2.47413e-13
-1.9293e-13
-1.3666e-13
-8.25409e-14
-2.7013e-14
-9.553e-13
-9.60292e-13
-9.66121e-13
-9.90757e-13
-9.85854e-13
-1.02818e-12
-1.01104e-12
-9.80755e-13
-1.03559e-12
-9.98493e-13
-9.80048e-13
-9.71718e-13
-9.55424e-13
-9.41483e-13
-9.33649e-13
-9.27879e-13
-9.35279e-13
-9.15636e-13
-8.86381e-13
-9.28072e-13
-9.57376e-13
-9.46842e-13
-9.18212e-13
-9.04957e-13
-9.18432e-13
-9.40181e-13
-9.6079e-13
-9.60161e-13
-9.73788e-13
-9.67878e-13
-9.9749e-13
-1.01308e-12
-1.0235e-12
-1.0864e-12
-1.07569e-12
-1.10746e-12
-1.12579e-12
-1.05189e-12
-1.04492e-12
-9.97484e-13
-9.34766e-13
-9.40453e-13
-9.53515e-13
-9.05587e-13
-8.72921e-13
-8.49818e-13
-8.03609e-13
-7.42168e-13
-6.62103e-13
-6.10657e-13
-5.43889e-13
-4.79432e-13
-4.061e-13
-3.49116e-13
-3.02006e-13
-2.50446e-13
-1.92279e-13
-1.32059e-13
-8.12318e-14
-2.40891e-14
-9.55262e-13
-9.59268e-13
-9.75401e-13
-1.00061e-12
-9.91614e-13
-1.0281e-12
-1.01364e-12
-9.86146e-13
-1.02233e-12
-1.00073e-12
-9.62497e-13
-9.80279e-13
-9.71242e-13
-9.34284e-13
-9.26132e-13
-9.15265e-13
-9.50037e-13
-9.09962e-13
-8.81515e-13
-9.3049e-13
-9.73311e-13
-9.46753e-13
-9.26366e-13
-9.03738e-13
-9.26284e-13
-9.36919e-13
-9.57701e-13
-9.54918e-13
-9.51257e-13
-9.7538e-13
-1.0015e-12
-1.0122e-12
-1.0351e-12
-1.07506e-12
-1.09042e-12
-1.10093e-12
-1.10256e-12
-1.03926e-12
-1.04733e-12
-1.00173e-12
-9.53167e-13
-9.33416e-13
-9.47511e-13
-9.10506e-13
-8.76104e-13
-8.45791e-13
-8.07e-13
-7.53017e-13
-6.61787e-13
-5.87054e-13
-5.37521e-13
-4.80878e-13
-4.08651e-13
-3.48551e-13
-3.0297e-13
-2.48563e-13
-1.91848e-13
-1.29321e-13
-8.92413e-14
-2.22384e-14
-9.56414e-13
-9.70952e-13
-9.73656e-13
-9.89589e-13
-1.01161e-12
-1.02206e-12
-1.01269e-12
-9.98734e-13
-1.01818e-12
-9.77313e-13
-9.5977e-13
-9.86261e-13
-9.72802e-13
-9.29164e-13
-9.24028e-13
-9.10817e-13
-9.67866e-13
-9.25992e-13
-8.71317e-13
-9.22233e-13
-9.80764e-13
-9.40564e-13
-9.20701e-13
-9.1396e-13
-9.30264e-13
-9.41508e-13
-9.48417e-13
-9.47027e-13
-9.43183e-13
-1.00535e-12
-9.90827e-13
-1.00598e-12
-1.05738e-12
-1.07284e-12
-1.09261e-12
-1.09561e-12
-1.08388e-12
-1.04249e-12
-1.04962e-12
-1.01537e-12
-9.46763e-13
-9.43901e-13
-9.46657e-13
-9.14993e-13
-8.78265e-13
-8.40838e-13
-8.0216e-13
-7.5427e-13
-6.67092e-13
-5.81011e-13
-5.34524e-13
-4.69892e-13
-4.11144e-13
-3.51561e-13
-2.96485e-13
-2.5665e-13
-1.94054e-13
-1.23025e-13
-8.30306e-14
-2.91739e-14
-9.31205e-13
-9.73789e-13
-9.66925e-13
-9.92113e-13
-1.03906e-12
-1.01894e-12
-9.94154e-13
-9.87319e-13
-1.01607e-12
-9.78042e-13
-9.61485e-13
-9.84019e-13
-9.79808e-13
-9.4203e-13
-9.1463e-13
-9.22566e-13
-9.70655e-13
-9.32991e-13
-8.74609e-13
-9.10902e-13
-9.55116e-13
-9.45054e-13
-9.24943e-13
-9.16959e-13
-9.19877e-13
-9.37675e-13
-9.4591e-13
-9.42584e-13
-9.62728e-13
-1.00114e-12
-9.98367e-13
-1.0148e-12
-1.0476e-12
-1.06467e-12
-1.07344e-12
-1.08748e-12
-1.08515e-12
-1.04158e-12
-1.06565e-12
-1.01316e-12
-9.50888e-13
-9.50591e-13
-9.32282e-13
-9.1504e-13
-8.79062e-13
-8.36558e-13
-7.95184e-13
-7.69476e-13
-6.76661e-13
-5.61921e-13
-5.14903e-13
-4.72512e-13
-4.18652e-13
-3.50232e-13
-2.90722e-13
-2.66846e-13
-2.05599e-13
-1.15361e-13
-7.67643e-14
-3.05802e-14
-9.36999e-13
-9.85992e-13
-9.83311e-13
-9.90805e-13
-1.02859e-12
-1.02392e-12
-9.96755e-13
-9.82245e-13
-1.00562e-12
-9.75012e-13
-9.6696e-13
-9.8031e-13
-9.71188e-13
-9.51373e-13
-9.22619e-13
-9.21142e-13
-9.49075e-13
-9.40703e-13
-8.85367e-13
-9.25396e-13
-9.56558e-13
-9.47421e-13
-9.3272e-13
-9.27439e-13
-9.43305e-13
-9.25523e-13
-9.44284e-13
-9.31401e-13
-9.74704e-13
-1.00589e-12
-9.93081e-13
-9.9838e-13
-1.05845e-12
-1.06176e-12
-1.06306e-12
-1.07523e-12
-1.07633e-12
-1.0566e-12
-1.06284e-12
-1.01871e-12
-9.62691e-13
-9.55465e-13
-9.46046e-13
-9.18014e-13
-8.66785e-13
-8.31485e-13
-7.86984e-13
-7.5845e-13
-6.72369e-13
-5.64099e-13
-5.10889e-13
-4.78487e-13
-4.0748e-13
-3.47674e-13
-3.10414e-13
-2.7408e-13
-1.90372e-13
-1.12726e-13
-9.2048e-14
-3.23473e-14
-9.21585e-13
-9.99272e-13
-9.90817e-13
-1.00996e-12
-1.02354e-12
-9.97013e-13
-9.85457e-13
-9.99203e-13
-9.99051e-13
-9.71734e-13
-9.82749e-13
-9.7948e-13
-9.72544e-13
-9.63997e-13
-9.44223e-13
-8.9206e-13
-9.2687e-13
-9.5468e-13
-8.93467e-13
-8.9945e-13
-9.29326e-13
-9.53441e-13
-9.41128e-13
-9.33344e-13
-9.31777e-13
-9.3702e-13
-9.35944e-13
-9.39004e-13
-9.81352e-13
-1.00664e-12
-9.82885e-13
-1.00079e-12
-1.0439e-12
-1.0572e-12
-1.06264e-12
-1.07108e-12
-1.07843e-12
-1.05844e-12
-1.04144e-12
-1.01887e-12
-9.84295e-13
-9.66647e-13
-9.50929e-13
-9.15142e-13
-8.55607e-13
-8.37717e-13
-7.88013e-13
-7.51446e-13
-6.71853e-13
-5.59398e-13
-5.13557e-13
-4.72063e-13
-3.92956e-13
-3.34328e-13
-3.05074e-13
-2.90265e-13
-2.02161e-13
-1.23009e-13
-9.39621e-14
-4.86353e-14
-9.45175e-13
-9.96511e-13
-1.00434e-12
-1.01579e-12
-1.0056e-12
-9.87349e-13
-9.61425e-13
-1.00269e-12
-9.9492e-13
-9.67075e-13
-9.85641e-13
-9.84882e-13
-1.00954e-12
-9.28179e-13
-9.35818e-13
-9.41562e-13
-9.54966e-13
-9.18527e-13
-9.20349e-13
-8.79951e-13
-9.06795e-13
-9.45317e-13
-9.38207e-13
-9.26002e-13
-9.37154e-13
-9.47668e-13
-9.38629e-13
-9.27778e-13
-9.62664e-13
-1.00668e-12
-9.90776e-13
-9.90312e-13
-1.0242e-12
-1.06803e-12
-1.05999e-12
-1.06729e-12
-1.08094e-12
-1.05805e-12
-1.03747e-12
-1.02594e-12
-9.94343e-13
-9.73776e-13
-9.5972e-13
-9.07325e-13
-8.37232e-13
-8.34811e-13
-7.99259e-13
-7.5296e-13
-6.76919e-13
-5.65559e-13
-5.15528e-13
-4.61584e-13
-3.84383e-13
-3.32351e-13
-2.99526e-13
-2.85766e-13
-2.19509e-13
-1.34157e-13
-9.0148e-14
-5.32179e-14
-9.49752e-13
-9.87661e-13
-1.00703e-12
-1.02798e-12
-1.00761e-12
-9.89108e-13
-9.62571e-13
-9.90463e-13
-9.91404e-13
-9.76266e-13
-9.97317e-13
-9.71699e-13
-9.86483e-13
-9.42882e-13
-9.21999e-13
-9.72129e-13
-9.40495e-13
-9.31215e-13
-9.20096e-13
-8.82342e-13
-8.87605e-13
-9.26634e-13
-9.34602e-13
-9.26855e-13
-9.40637e-13
-9.48569e-13
-9.29346e-13
-9.32461e-13
-9.56623e-13
-9.94205e-13
-1.00707e-12
-1.00254e-12
-1.01022e-12
-1.05229e-12
-1.06119e-12
-1.06624e-12
-1.08837e-12
-1.06965e-12
-1.05677e-12
-1.01096e-12
-9.73626e-13
-9.66124e-13
-9.71577e-13
-9.00403e-13
-8.45705e-13
-8.40451e-13
-7.917e-13
-7.66674e-13
-6.88315e-13
-5.64411e-13
-5.05023e-13
-4.64863e-13
-3.88671e-13
-3.21734e-13
-2.95101e-13
-2.89807e-13
-2.24525e-13
-1.414e-13
-8.38075e-14
-3.80486e-14
-9.44422e-13
-9.8489e-13
-1.00349e-12
-1.02983e-12
-1.02114e-12
-9.86722e-13
-9.67267e-13
-9.87123e-13
-1.00188e-12
-9.62794e-13
-1.0066e-12
-9.84549e-13
-9.52585e-13
-9.40206e-13
-8.74657e-13
-9.23297e-13
-9.22024e-13
-9.4081e-13
-9.01341e-13
-9.20977e-13
-8.85411e-13
-9.38325e-13
-9.34601e-13
-9.27952e-13
-9.31076e-13
-9.35538e-13
-9.19744e-13
-9.45574e-13
-9.46517e-13
-9.95442e-13
-1.00167e-12
-9.91341e-13
-1.02283e-12
-1.04041e-12
-1.04462e-12
-1.08149e-12
-1.07707e-12
-1.08468e-12
-1.04613e-12
-1.03404e-12
-9.71542e-13
-9.416e-13
-9.58679e-13
-9.14422e-13
-8.73673e-13
-8.48639e-13
-7.75787e-13
-7.51756e-13
-6.76841e-13
-5.59817e-13
-5.13945e-13
-4.7452e-13
-3.98058e-13
-3.33847e-13
-2.9198e-13
-2.72067e-13
-2.20772e-13
-1.4776e-13
-7.18315e-14
-3.48449e-14
-9.60723e-13
-9.6827e-13
-9.9795e-13
-1.00912e-12
-1.03989e-12
-9.85197e-13
-9.72205e-13
-9.77656e-13
-9.8636e-13
-9.64928e-13
-1.00266e-12
-9.97984e-13
-9.70017e-13
-9.30615e-13
-8.93332e-13
-9.45589e-13
-8.81482e-13
-9.26e-13
-9.24166e-13
-9.3392e-13
-9.07907e-13
-9.40148e-13
-9.38933e-13
-9.23939e-13
-9.22924e-13
-9.32022e-13
-9.12997e-13
-9.44251e-13
-9.75916e-13
-1.0067e-12
-9.90005e-13
-9.92613e-13
-1.01342e-12
-1.01916e-12
-1.05065e-12
-1.08659e-12
-1.08661e-12
-1.0952e-12
-1.04034e-12
-1.01211e-12
-9.7653e-13
-9.44841e-13
-9.6019e-13
-9.14494e-13
-8.71918e-13
-8.43074e-13
-7.7889e-13
-7.43151e-13
-6.60009e-13
-5.64289e-13
-5.35344e-13
-4.84717e-13
-3.94275e-13
-3.29217e-13
-2.98363e-13
-2.61107e-13
-2.27775e-13
-1.48753e-13
-6.65594e-14
-3.20585e-14
-9.58809e-13
-9.63673e-13
-9.94946e-13
-1.00429e-12
-1.03821e-12
-9.78441e-13
-9.827e-13
-9.64753e-13
-9.95299e-13
-9.66603e-13
-9.96011e-13
-1.00841e-12
-9.47886e-13
-9.14878e-13
-9.20994e-13
-8.64748e-13
-9.48565e-13
-9.72795e-13
-8.7709e-13
-9.49681e-13
-9.19653e-13
-9.56741e-13
-9.342e-13
-8.99063e-13
-9.3291e-13
-9.34474e-13
-9.25471e-13
-9.45107e-13
-9.77464e-13
-9.99321e-13
-1.00048e-12
-9.96411e-13
-1.00496e-12
-1.015e-12
-1.04414e-12
-1.07494e-12
-1.09539e-12
-1.08179e-12
-1.02921e-12
-1.00776e-12
-9.96891e-13
-9.628e-13
-9.44573e-13
-8.94765e-13
-8.68198e-13
-8.40489e-13
-7.65235e-13
-7.40109e-13
-6.63611e-13
-5.80808e-13
-5.24953e-13
-4.75653e-13
-3.98126e-13
-3.42561e-13
-3.07321e-13
-2.51821e-13
-2.30846e-13
-1.6964e-13
-5.55309e-14
-2.93564e-14
-9.56819e-13
-9.54763e-13
-1.00208e-12
-1.00175e-12
-1.01874e-12
-9.82642e-13
-9.79662e-13
-9.672e-13
-9.86752e-13
-9.82126e-13
-9.94816e-13
-1.00781e-12
-9.45444e-13
-9.33102e-13
-9.73057e-13
-9.30465e-13
-9.38685e-13
-1.01895e-12
-9.47723e-13
-8.93755e-13
-9.21902e-13
-9.37918e-13
-9.32027e-13
-9.03305e-13
-9.30184e-13
-9.33588e-13
-9.38441e-13
-9.33171e-13
-9.72877e-13
-9.8879e-13
-1.00792e-12
-1.01363e-12
-1.01032e-12
-1.02312e-12
-1.05301e-12
-1.05294e-12
-1.08613e-12
-1.06469e-12
-1.03107e-12
-1.00693e-12
-1.01255e-12
-9.84913e-13
-9.3771e-13
-8.75657e-13
-8.62931e-13
-8.43931e-13
-7.75532e-13
-7.18755e-13
-6.57744e-13
-5.92809e-13
-5.21788e-13
-4.78247e-13
-3.97477e-13
-3.45293e-13
-3.16806e-13
-2.66327e-13
-2.3538e-13
-1.47234e-13
-5.52347e-14
-2.63565e-14
-9.6351e-13
-9.52747e-13
-9.95668e-13
-9.95071e-13
-1.00994e-12
-9.97933e-13
-9.7211e-13
-9.63465e-13
-9.78379e-13
-9.88965e-13
-9.87898e-13
-9.94276e-13
-9.68358e-13
-9.69271e-13
-9.90428e-13
-9.30637e-13
-9.49276e-13
-1.01761e-12
-9.48819e-13
-9.2695e-13
-8.97715e-13
-9.3659e-13
-9.42001e-13
-8.97377e-13
-9.15659e-13
-9.29551e-13
-9.5337e-13
-9.36567e-13
-9.64905e-13
-9.94157e-13
-1.01448e-12
-1.02021e-12
-9.96558e-13
-1.02638e-12
-1.06943e-12
-1.05469e-12
-1.08289e-12
-1.0603e-12
-1.03464e-12
-1.00752e-12
-1.01228e-12
-9.81004e-13
-9.31808e-13
-8.81565e-13
-8.50394e-13
-8.18308e-13
-7.59807e-13
-7.15146e-13
-6.63918e-13
-5.9407e-13
-5.14755e-13
-4.69289e-13
-4.08232e-13
-3.68751e-13
-3.24442e-13
-2.69737e-13
-2.22358e-13
-1.35968e-13
-6.61933e-14
-2.84915e-14
-9.74564e-13
-9.58963e-13
-9.92376e-13
-9.92327e-13
-1.00834e-12
-9.79276e-13
-9.92648e-13
-9.61358e-13
-9.70891e-13
-9.92489e-13
-9.9099e-13
-1.01601e-12
-9.58475e-13
-9.58819e-13
-9.5975e-13
-9.16667e-13
-9.51835e-13
-1.01303e-12
-9.50537e-13
-9.19753e-13
-9.05528e-13
-9.50104e-13
-9.49587e-13
-9.06857e-13
-9.22397e-13
-9.30942e-13
-9.40722e-13
-9.4293e-13
-9.61072e-13
-9.92971e-13
-1.01428e-12
-1.02951e-12
-9.92943e-13
-1.02616e-12
-1.08119e-12
-1.0607e-12
-1.06302e-12
-1.05991e-12
-1.02778e-12
-1.01768e-12
-1.00914e-12
-9.94293e-13
-9.37699e-13
-8.73753e-13
-8.42793e-13
-7.99891e-13
-7.49002e-13
-7.06304e-13
-6.67714e-13
-5.95132e-13
-5.19318e-13
-4.7806e-13
-4.1193e-13
-3.66392e-13
-3.23667e-13
-2.6758e-13
-2.36756e-13
-1.41002e-13
-6.36089e-14
-2.67977e-14
-9.94703e-13
-9.71752e-13
-9.70815e-13
-9.87369e-13
-9.95997e-13
-9.8438e-13
-9.86399e-13
-9.54624e-13
-9.57093e-13
-9.90161e-13
-9.99153e-13
-1.02022e-12
-9.52122e-13
-9.6926e-13
-9.45233e-13
-9.18448e-13
-9.3707e-13
-1.00499e-12
-9.50036e-13
-9.19897e-13
-9.03461e-13
-9.64178e-13
-9.33427e-13
-9.0244e-13
-9.29412e-13
-9.34429e-13
-9.55395e-13
-9.34279e-13
-9.67297e-13
-9.95839e-13
-1.01597e-12
-1.02295e-12
-1.01555e-12
-1.00881e-12
-1.08486e-12
-1.07225e-12
-1.06099e-12
-1.04254e-12
-1.03157e-12
-1.02241e-12
-1.0121e-12
-1.00194e-12
-9.43258e-13
-8.6874e-13
-8.38338e-13
-7.94636e-13
-7.35366e-13
-7.05523e-13
-6.59638e-13
-5.93467e-13
-5.27045e-13
-4.77129e-13
-4.19629e-13
-3.61241e-13
-3.14456e-13
-2.66722e-13
-2.3992e-13
-1.46967e-13
-7.49248e-14
-2.04377e-14
-1.0067e-12
-9.79306e-13
-9.44585e-13
-9.84139e-13
-9.94681e-13
-9.80568e-13
-9.90921e-13
-9.49378e-13
-9.68485e-13
-9.83329e-13
-1.01849e-12
-1.02311e-12
-9.57882e-13
-9.67059e-13
-9.29015e-13
-9.12502e-13
-9.25716e-13
-9.88344e-13
-9.68362e-13
-9.37942e-13
-9.0078e-13
-9.57252e-13
-9.43239e-13
-9.16168e-13
-9.49065e-13
-9.16175e-13
-9.49842e-13
-9.39259e-13
-9.67153e-13
-1.01112e-12
-1.01526e-12
-1.04963e-12
-1.00873e-12
-9.95202e-13
-1.0893e-12
-1.07726e-12
-1.04942e-12
-1.03554e-12
-1.02135e-12
-1.02378e-12
-1.01857e-12
-1.01076e-12
-9.44422e-13
-8.61597e-13
-8.21978e-13
-7.91318e-13
-7.26023e-13
-7.08108e-13
-6.72554e-13
-6.04059e-13
-5.3209e-13
-4.83042e-13
-4.22958e-13
-3.48189e-13
-2.91901e-13
-2.76521e-13
-2.4478e-13
-1.52638e-13
-7.51471e-14
-1.43195e-14
-1.00422e-12
-9.93271e-13
-9.61671e-13
-9.96234e-13
-9.91783e-13
-9.71555e-13
-9.88537e-13
-9.31138e-13
-9.44292e-13
-9.84186e-13
-1.01603e-12
-1.01174e-12
-9.85375e-13
-9.39266e-13
-9.45764e-13
-9.13266e-13
-9.07251e-13
-1.00481e-12
-9.4211e-13
-9.63877e-13
-9.02051e-13
-9.53457e-13
-9.60306e-13
-9.2332e-13
-9.42167e-13
-9.09799e-13
-9.49318e-13
-9.28959e-13
-9.73318e-13
-1.00533e-12
-1.03329e-12
-1.05546e-12
-1.01041e-12
-9.64297e-13
-1.0779e-12
-1.1136e-12
-1.05087e-12
-1.03863e-12
-1.01658e-12
-1.01965e-12
-1.0157e-12
-1.02267e-12
-9.32499e-13
-8.62851e-13
-8.21565e-13
-7.8317e-13
-7.35995e-13
-7.16825e-13
-6.72312e-13
-6.00352e-13
-5.40651e-13
-4.77805e-13
-4.21017e-13
-3.65427e-13
-2.84259e-13
-2.57742e-13
-2.47242e-13
-1.63221e-13
-6.75525e-14
-5.18526e-15
-9.51894e-13
-9.59477e-13
-9.76032e-13
-9.74503e-13
-9.82483e-13
-1.02588e-12
-9.96264e-13
-1.00656e-12
-1.01788e-12
-1.01247e-12
-9.77593e-13
-9.70553e-13
-9.63852e-13
-9.48597e-13
-9.35096e-13
-9.41639e-13
-9.29462e-13
-8.98347e-13
-8.96674e-13
-9.21245e-13
-9.57876e-13
-9.23208e-13
-9.21882e-13
-9.1079e-13
-9.23127e-13
-9.38112e-13
-9.64447e-13
-9.52271e-13
-9.77726e-13
-9.70187e-13
-1.00401e-12
-1.0071e-12
-1.01639e-12
-1.08069e-12
-1.07338e-12
-1.09735e-12
-1.11875e-12
-1.06653e-12
-1.03821e-12
-1.00346e-12
-9.39788e-13
-9.48789e-13
-9.55385e-13
-9.01685e-13
-8.81477e-13
-8.50378e-13
-7.95416e-13
-7.22212e-13
-6.78723e-13
-6.15853e-13
-5.50077e-13
-4.81284e-13
-4.08975e-13
-3.46838e-13
-2.98417e-13
-2.39226e-13
-1.98475e-13
-1.38718e-13
-8.23696e-14
-2.75782e-14
-9.61051e-13
-9.5707e-13
-9.67146e-13
-9.84447e-13
-9.87347e-13
-1.02626e-12
-1.00811e-12
-9.88913e-13
-1.02125e-12
-9.9893e-13
-9.8128e-13
-9.69534e-13
-9.67921e-13
-9.36197e-13
-9.34361e-13
-9.37155e-13
-9.31739e-13
-9.0379e-13
-8.85314e-13
-9.27916e-13
-9.63272e-13
-9.21153e-13
-9.28208e-13
-9.03788e-13
-9.18683e-13
-9.49474e-13
-9.52427e-13
-9.5941e-13
-9.68396e-13
-9.70843e-13
-1.00068e-12
-1.00864e-12
-1.02493e-12
-1.08095e-12
-1.08017e-12
-1.0988e-12
-1.10997e-12
-1.06071e-12
-1.04034e-12
-1.00342e-12
-9.45559e-13
-9.42239e-13
-9.58291e-13
-9.07677e-13
-8.79403e-13
-8.51025e-13
-7.98406e-13
-7.34204e-13
-6.69868e-13
-6.04696e-13
-5.43531e-13
-4.81832e-13
-4.06954e-13
-3.51455e-13
-3.03714e-13
-2.40102e-13
-1.93617e-13
-1.31163e-13
-8.55406e-14
-2.56872e-14
-9.64126e-13
-9.65771e-13
-9.60846e-13
-9.96209e-13
-9.94534e-13
-1.0343e-12
-1.0103e-12
-9.82294e-13
-1.00969e-12
-9.97762e-13
-9.61586e-13
-9.78327e-13
-9.76456e-13
-9.2919e-13
-9.32683e-13
-9.26561e-13
-9.41226e-13
-9.11182e-13
-8.82173e-13
-9.3009e-13
-9.64029e-13
-9.298e-13
-9.32034e-13
-9.17522e-13
-9.17516e-13
-9.47299e-13
-9.48642e-13
-9.60471e-13
-9.61335e-13
-9.60796e-13
-1.00692e-12
-1.01328e-12
-1.0399e-12
-1.06154e-12
-1.09352e-12
-1.099e-12
-1.10051e-12
-1.04801e-12
-1.04468e-12
-1.00602e-12
-9.53302e-13
-9.36277e-13
-9.56775e-13
-9.08662e-13
-8.76534e-13
-8.48625e-13
-8.05232e-13
-7.48033e-13
-6.6013e-13
-5.82718e-13
-5.42206e-13
-4.78838e-13
-4.09745e-13
-3.57744e-13
-2.95761e-13
-2.44931e-13
-1.90003e-13
-1.27282e-13
-9.2326e-14
-2.37721e-14
-9.61748e-13
-9.67479e-13
-9.71648e-13
-9.87001e-13
-1.0079e-12
-1.0318e-12
-1.00333e-12
-9.88112e-13
-1.00557e-12
-9.77106e-13
-9.69931e-13
-9.92239e-13
-9.75229e-13
-9.27326e-13
-9.21904e-13
-9.14534e-13
-9.6318e-13
-9.29464e-13
-8.68347e-13
-9.29081e-13
-9.64531e-13
-9.32931e-13
-9.36848e-13
-9.20044e-13
-9.19005e-13
-9.33675e-13
-9.56273e-13
-9.47197e-13
-9.55736e-13
-9.81044e-13
-1.0057e-12
-1.0022e-12
-1.05662e-12
-1.07041e-12
-1.09462e-12
-1.09109e-12
-1.08945e-12
-1.04222e-12
-1.04611e-12
-1.01123e-12
-9.54639e-13
-9.41766e-13
-9.53076e-13
-9.19825e-13
-8.80458e-13
-8.4125e-13
-7.94203e-13
-7.42743e-13
-6.69918e-13
-5.79185e-13
-5.27996e-13
-4.69058e-13
-4.16948e-13
-3.62279e-13
-2.9431e-13
-2.53377e-13
-1.91921e-13
-1.17988e-13
-8.68054e-14
-2.47103e-14
-9.46648e-13
-9.70128e-13
-9.77454e-13
-9.85751e-13
-1.02875e-12
-1.01585e-12
-9.98715e-13
-9.91021e-13
-1.01124e-12
-9.68663e-13
-9.67019e-13
-9.98024e-13
-9.74425e-13
-9.33204e-13
-9.19988e-13
-9.06471e-13
-9.66834e-13
-9.31289e-13
-8.89995e-13
-9.16647e-13
-9.54853e-13
-9.3687e-13
-9.39377e-13
-9.20504e-13
-9.20846e-13
-9.28137e-13
-9.48683e-13
-9.4583e-13
-9.68231e-13
-9.89996e-13
-9.95791e-13
-1.00478e-12
-1.05964e-12
-1.0638e-12
-1.07338e-12
-1.08599e-12
-1.0872e-12
-1.0446e-12
-1.05772e-12
-1.01739e-12
-9.64315e-13
-9.46112e-13
-9.43148e-13
-9.24147e-13
-8.80857e-13
-8.38802e-13
-7.93297e-13
-7.4442e-13
-6.64718e-13
-5.75069e-13
-5.30027e-13
-4.6996e-13
-4.13806e-13
-3.50482e-13
-2.87491e-13
-2.66748e-13
-1.9976e-13
-1.13534e-13
-8.35292e-14
-3.20563e-14
-9.4098e-13
-9.77587e-13
-9.93601e-13
-9.87604e-13
-1.02706e-12
-1.00685e-12
-9.95253e-13
-9.87525e-13
-1.00713e-12
-9.71364e-13
-9.72117e-13
-9.88461e-13
-9.89409e-13
-9.46058e-13
-9.12478e-13
-9.30487e-13
-9.55564e-13
-9.60263e-13
-8.78433e-13
-9.2644e-13
-9.55503e-13
-9.47177e-13
-9.32338e-13
-9.31137e-13
-9.32953e-13
-9.23589e-13
-9.46611e-13
-9.39583e-13
-9.77548e-13
-9.88265e-13
-9.9259e-13
-1.0025e-12
-1.0492e-12
-1.07077e-12
-1.07066e-12
-1.07404e-12
-1.08093e-12
-1.06673e-12
-1.05146e-12
-1.0166e-12
-9.68625e-13
-9.52114e-13
-9.36335e-13
-9.29486e-13
-8.73313e-13
-8.34039e-13
-7.86097e-13
-7.38648e-13
-6.6979e-13
-5.72498e-13
-5.18055e-13
-4.75463e-13
-4.11793e-13
-3.40552e-13
-2.96805e-13
-2.76796e-13
-1.93457e-13
-1.19358e-13
-8.954e-14
-3.12838e-14
-9.28753e-13
-9.98032e-13
-9.96156e-13
-1.00337e-12
-1.0133e-12
-1.00197e-12
-9.83427e-13
-9.90754e-13
-1.00932e-12
-9.66124e-13
-9.7392e-13
-9.87581e-13
-9.79931e-13
-9.57219e-13
-9.29082e-13
-9.17691e-13
-9.01031e-13
-9.45023e-13
-9.15563e-13
-9.25871e-13
-9.43843e-13
-9.54516e-13
-9.28962e-13
-9.34076e-13
-9.251e-13
-9.40395e-13
-9.45821e-13
-9.39566e-13
-9.67119e-13
-9.89838e-13
-1.00046e-12
-9.99302e-13
-1.02883e-12
-1.07338e-12
-1.06921e-12
-1.06999e-12
-1.0949e-12
-1.06041e-12
-1.03379e-12
-1.01395e-12
-9.8933e-13
-9.55358e-13
-9.4179e-13
-9.31284e-13
-8.6435e-13
-8.3258e-13
-7.82646e-13
-7.31819e-13
-6.77425e-13
-5.78907e-13
-5.14919e-13
-4.70925e-13
-3.95834e-13
-3.33106e-13
-3.004e-13
-2.81299e-13
-2.02233e-13
-1.25706e-13
-8.87628e-14
-4.03348e-14
-9.42227e-13
-1.00066e-12
-9.9764e-13
-1.00978e-12
-1.00924e-12
-9.84922e-13
-9.76454e-13
-9.9617e-13
-1.00132e-12
-9.69192e-13
-9.81926e-13
-9.83147e-13
-9.86337e-13
-9.50041e-13
-8.9921e-13
-9.58394e-13
-9.37288e-13
-9.13996e-13
-9.24492e-13
-8.84535e-13
-9.40962e-13
-9.49957e-13
-9.29987e-13
-9.36842e-13
-9.28506e-13
-9.40771e-13
-9.46778e-13
-9.30138e-13
-9.61388e-13
-9.91696e-13
-1.00031e-12
-9.90984e-13
-1.02776e-12
-1.07263e-12
-1.05484e-12
-1.07334e-12
-1.09222e-12
-1.06414e-12
-1.04322e-12
-1.01049e-12
-9.91702e-13
-9.58489e-13
-9.50937e-13
-9.20921e-13
-8.53174e-13
-8.3544e-13
-7.99074e-13
-7.42499e-13
-6.80097e-13
-5.78971e-13
-5.09561e-13
-4.61234e-13
-3.85067e-13
-3.29782e-13
-3.02042e-13
-2.7637e-13
-2.15634e-13
-1.38852e-13
-9.20201e-14
-5.17416e-14
-9.54378e-13
-9.76724e-13
-9.99546e-13
-1.0283e-12
-1.02062e-12
-9.78011e-13
-9.75476e-13
-9.87529e-13
-9.88403e-13
-9.84929e-13
-9.95381e-13
-9.69758e-13
-9.75241e-13
-9.45098e-13
-9.303e-13
-9.54038e-13
-9.34033e-13
-9.41288e-13
-9.46546e-13
-8.86515e-13
-9.11846e-13
-9.36178e-13
-9.33366e-13
-9.29929e-13
-9.27458e-13
-9.54766e-13
-9.26644e-13
-9.29145e-13
-9.57823e-13
-9.84952e-13
-1.0107e-12
-9.97452e-13
-1.01353e-12
-1.05548e-12
-1.06454e-12
-1.06885e-12
-1.0939e-12
-1.07684e-12
-1.03691e-12
-1.01921e-12
-9.81115e-13
-9.53221e-13
-9.56219e-13
-9.17387e-13
-8.52596e-13
-8.36119e-13
-7.89818e-13
-7.50465e-13
-6.8776e-13
-5.68141e-13
-5.11199e-13
-4.66697e-13
-3.9723e-13
-3.26942e-13
-2.9359e-13
-2.83701e-13
-2.19716e-13
-1.47251e-13
-8.28985e-14
-4.57954e-14
-9.52974e-13
-9.83865e-13
-9.98936e-13
-1.01945e-12
-1.0284e-12
-9.93551e-13
-9.61083e-13
-9.7777e-13
-1.00188e-12
-9.83797e-13
-9.96563e-13
-9.80332e-13
-9.74037e-13
-9.46824e-13
-9.16968e-13
-9.28461e-13
-9.17083e-13
-9.54594e-13
-9.18419e-13
-9.09733e-13
-8.74453e-13
-9.3128e-13
-9.42628e-13
-9.33051e-13
-9.25797e-13
-9.43204e-13
-9.14156e-13
-9.48804e-13
-9.52722e-13
-9.81776e-13
-1.00721e-12
-9.9918e-13
-1.00335e-12
-1.05092e-12
-1.05607e-12
-1.07407e-12
-1.08884e-12
-1.07981e-12
-1.04255e-12
-1.03144e-12
-9.72728e-13
-9.44991e-13
-9.46432e-13
-9.33145e-13
-8.68871e-13
-8.46188e-13
-7.80182e-13
-7.42436e-13
-6.75722e-13
-5.69672e-13
-5.1923e-13
-4.71908e-13
-3.988e-13
-3.38404e-13
-2.92275e-13
-2.77995e-13
-2.17908e-13
-1.52855e-13
-6.95043e-14
-3.69146e-14
-9.62384e-13
-9.7333e-13
-9.82976e-13
-1.01712e-12
-1.03418e-12
-9.91698e-13
-9.67386e-13
-9.71496e-13
-9.95117e-13
-9.87641e-13
-9.89169e-13
-9.93848e-13
-9.60106e-13
-9.13872e-13
-9.52676e-13
-9.2972e-13
-8.93051e-13
-9.52558e-13
-9.21938e-13
-9.03262e-13
-9.03194e-13
-9.33546e-13
-9.50769e-13
-9.29387e-13
-9.28143e-13
-9.31306e-13
-9.0945e-13
-9.39804e-13
-9.79092e-13
-9.96069e-13
-9.91633e-13
-9.94493e-13
-1.01383e-12
-1.02977e-12
-1.04941e-12
-1.08041e-12
-1.106e-12
-1.07649e-12
-1.04596e-12
-1.01552e-12
-9.70317e-13
-9.56265e-13
-9.45778e-13
-9.20496e-13
-8.75414e-13
-8.45327e-13
-7.7921e-13
-7.33031e-13
-6.57817e-13
-5.76807e-13
-5.38665e-13
-4.71638e-13
-3.93758e-13
-3.29864e-13
-3.00722e-13
-2.71158e-13
-2.21444e-13
-1.58564e-13
-6.04298e-14
-2.99686e-14
-9.70074e-13
-9.5904e-13
-9.90087e-13
-1.00522e-12
-1.02805e-12
-9.84564e-13
-9.75679e-13
-9.63122e-13
-1.00064e-12
-9.76534e-13
-9.92877e-13
-9.97261e-13
-9.62533e-13
-9.15573e-13
-9.47942e-13
-9.23451e-13
-9.3341e-13
-9.65413e-13
-9.13998e-13
-9.06054e-13
-8.83754e-13
-9.41358e-13
-9.40908e-13
-9.14821e-13
-9.30288e-13
-9.29599e-13
-9.21701e-13
-9.3776e-13
-9.82461e-13
-9.9247e-13
-9.99465e-13
-1.00319e-12
-1.00931e-12
-1.02271e-12
-1.05116e-12
-1.06971e-12
-1.0982e-12
-1.08501e-12
-1.02846e-12
-1.01441e-12
-9.86121e-13
-9.63251e-13
-9.47832e-13
-8.97599e-13
-8.70869e-13
-8.41011e-13
-7.70556e-13
-7.25265e-13
-6.59296e-13
-5.86993e-13
-5.3388e-13
-4.72427e-13
-3.95517e-13
-3.46845e-13
-3.03237e-13
-2.63383e-13
-2.21761e-13
-1.5809e-13
-6.29072e-14
-3.46598e-14
-9.677e-13
-9.59246e-13
-9.90678e-13
-9.97277e-13
-1.02023e-12
-9.78467e-13
-9.83846e-13
-9.75711e-13
-9.8669e-13
-9.81561e-13
-9.93789e-13
-9.98409e-13
-9.43782e-13
-9.12335e-13
-9.26045e-13
-9.16309e-13
-9.21122e-13
-9.82918e-13
-9.6728e-13
-9.39245e-13
-9.07565e-13
-9.29297e-13
-9.43052e-13
-8.99588e-13
-9.35591e-13
-9.30833e-13
-9.28868e-13
-9.36358e-13
-9.64992e-13
-9.90667e-13
-1.01162e-12
-9.9952e-13
-1.01471e-12
-1.02113e-12
-1.06085e-12
-1.06659e-12
-1.0842e-12
-1.07414e-12
-1.02873e-12
-1.00824e-12
-1.00181e-12
-9.75966e-13
-9.42856e-13
-8.85609e-13
-8.71098e-13
-8.30096e-13
-7.62067e-13
-7.18503e-13
-6.63617e-13
-5.91696e-13
-5.24628e-13
-4.75106e-13
-4.02747e-13
-3.53114e-13
-3.18371e-13
-2.65804e-13
-2.18279e-13
-1.48437e-13
-6.43202e-14
-2.58362e-14
-9.76931e-13
-9.51935e-13
-9.90899e-13
-9.98127e-13
-1.0087e-12
-9.84952e-13
-9.67363e-13
-9.78043e-13
-9.77852e-13
-9.88828e-13
-9.9984e-13
-9.84986e-13
-9.73654e-13
-9.51488e-13
-9.9286e-13
-9.31664e-13
-9.45699e-13
-9.95711e-13
-9.50951e-13
-9.29691e-13
-9.24419e-13
-9.43118e-13
-9.35745e-13
-9.05264e-13
-9.31664e-13
-9.29085e-13
-9.43535e-13
-9.3651e-13
-9.57256e-13
-9.93879e-13
-1.02111e-12
-1.00259e-12
-1.00424e-12
-1.03372e-12
-1.07018e-12
-1.05618e-12
-1.0778e-12
-1.06196e-12
-1.03982e-12
-1.00831e-12
-1.0062e-12
-9.83422e-13
-9.36887e-13
-8.83897e-13
-8.57142e-13
-8.12795e-13
-7.57714e-13
-7.11122e-13
-6.61807e-13
-5.91069e-13
-5.27435e-13
-4.74694e-13
-4.0827e-13
-3.66661e-13
-3.2785e-13
-2.7443e-13
-2.11371e-13
-1.43699e-13
-6.68412e-14
-2.82813e-14
-9.77603e-13
-9.50551e-13
-9.81214e-13
-1.00167e-12
-1.00244e-12
-9.88932e-13
-9.87861e-13
-9.6289e-13
-9.78266e-13
-9.83721e-13
-1.00885e-12
-9.89161e-13
-9.63341e-13
-9.6324e-13
-9.68746e-13
-9.13003e-13
-9.44391e-13
-9.80155e-13
-9.50433e-13
-9.3586e-13
-9.07764e-13
-9.5069e-13
-9.4542e-13
-9.13941e-13
-9.26736e-13
-9.29278e-13
-9.45132e-13
-9.2791e-13
-9.7116e-13
-9.91763e-13
-1.01349e-12
-1.01443e-12
-1.00649e-12
-1.0271e-12
-1.07638e-12
-1.05867e-12
-1.06296e-12
-1.05972e-12
-1.03313e-12
-1.01734e-12
-1.01201e-12
-9.93885e-13
-9.38427e-13
-8.76685e-13
-8.45567e-13
-7.98594e-13
-7.47682e-13
-7.07851e-13
-6.63482e-13
-5.92111e-13
-5.2411e-13
-4.84709e-13
-4.10487e-13
-3.67624e-13
-3.13926e-13
-2.74401e-13
-2.38427e-13
-1.47082e-13
-6.212e-14
-2.27749e-14
-1.00151e-12
-9.63335e-13
-9.53948e-13
-9.95995e-13
-9.94085e-13
-9.85489e-13
-9.9483e-13
-9.47723e-13
-9.77184e-13
-9.76886e-13
-1.00577e-12
-1.01231e-12
-9.5401e-13
-9.72582e-13
-9.53365e-13
-9.20842e-13
-9.31711e-13
-9.70277e-13
-9.55257e-13
-9.38378e-13
-9.11214e-13
-9.52804e-13
-9.39388e-13
-9.12182e-13
-9.34918e-13
-9.24837e-13
-9.45307e-13
-9.26346e-13
-9.67111e-13
-9.98431e-13
-1.02052e-12
-1.02882e-12
-1.01204e-12
-1.02535e-12
-1.06737e-12
-1.06729e-12
-1.06609e-12
-1.0483e-12
-1.02928e-12
-1.01691e-12
-1.00945e-12
-9.96765e-13
-9.45594e-13
-8.71434e-13
-8.36137e-13
-7.91101e-13
-7.35571e-13
-7.1129e-13
-6.63921e-13
-5.99767e-13
-5.23865e-13
-4.80477e-13
-4.14959e-13
-3.62605e-13
-3.12117e-13
-2.69544e-13
-2.31353e-13
-1.46595e-13
-7.08869e-14
-2.52521e-14
-1.00702e-12
-9.74973e-13
-9.4803e-13
-9.88829e-13
-9.90046e-13
-9.88014e-13
-9.96168e-13
-9.39823e-13
-9.72757e-13
-9.80153e-13
-1.02661e-12
-1.01687e-12
-9.67411e-13
-9.5286e-13
-9.41743e-13
-9.16596e-13
-9.17469e-13
-9.78906e-13
-9.55692e-13
-9.50556e-13
-9.0561e-13
-9.49017e-13
-9.4168e-13
-9.20107e-13
-9.51962e-13
-9.16966e-13
-9.39637e-13
-9.30948e-13
-9.68692e-13
-1.01111e-12
-1.02229e-12
-1.05503e-12
-9.95639e-13
-1.0126e-12
-1.07692e-12
-1.07313e-12
-1.05226e-12
-1.04129e-12
-1.02587e-12
-1.0244e-12
-1.0144e-12
-1.00659e-12
-9.47461e-13
-8.6656e-13
-8.15348e-13
-7.877e-13
-7.32858e-13
-7.11701e-13
-6.66435e-13
-6.04402e-13
-5.28634e-13
-4.86418e-13
-4.19264e-13
-3.5436e-13
-2.94112e-13
-2.67996e-13
-2.32993e-13
-1.55173e-13
-7.5325e-14
-2.36675e-14
-1.01347e-12
-9.87479e-13
-9.55713e-13
-9.90195e-13
-9.8202e-13
-9.7228e-13
-9.91503e-13
-9.41254e-13
-9.44669e-13
-9.89525e-13
-1.02274e-12
-1.01513e-12
-9.79772e-13
-9.51396e-13
-9.34157e-13
-9.19857e-13
-9.12549e-13
-9.90611e-13
-9.38997e-13
-9.65883e-13
-9.11766e-13
-9.39499e-13
-9.47987e-13
-9.34367e-13
-9.61063e-13
-9.17397e-13
-9.34403e-13
-9.22246e-13
-9.59839e-13
-1.02157e-12
-1.03403e-12
-1.05681e-12
-9.98103e-13
-9.98696e-13
-1.08223e-12
-1.07453e-12
-1.04748e-12
-1.04736e-12
-1.01851e-12
-1.01516e-12
-1.02065e-12
-1.01453e-12
-9.40953e-13
-8.64714e-13
-8.05957e-13
-7.79439e-13
-7.43165e-13
-7.19973e-13
-6.73197e-13
-6.02693e-13
-5.40527e-13
-4.76621e-13
-4.18347e-13
-3.66679e-13
-2.89673e-13
-2.60601e-13
-2.31395e-13
-1.62739e-13
-7.01305e-14
-9.32217e-15
-9.62397e-13
-9.54503e-13
-9.65749e-13
-9.70389e-13
-9.83978e-13
-1.03295e-12
-9.98815e-13
-1.00371e-12
-1.0171e-12
-1.00006e-12
-9.64539e-13
-9.78676e-13
-9.71544e-13
-9.47173e-13
-9.29129e-13
-9.52209e-13
-9.26754e-13
-8.90296e-13
-8.94029e-13
-9.20781e-13
-9.52728e-13
-9.22762e-13
-9.1781e-13
-9.06017e-13
-9.3259e-13
-9.42961e-13
-9.57818e-13
-9.6205e-13
-9.59932e-13
-9.72655e-13
-1.01263e-12
-1.00162e-12
-1.02507e-12
-1.06545e-12
-1.07419e-12
-1.1046e-12
-1.10607e-12
-1.07111e-12
-1.04244e-12
-1.00488e-12
-9.48321e-13
-9.53536e-13
-9.48417e-13
-9.00978e-13
-8.82364e-13
-8.53016e-13
-7.93634e-13
-7.25128e-13
-6.70298e-13
-6.08417e-13
-5.56852e-13
-4.83572e-13
-4.14073e-13
-3.47757e-13
-2.99267e-13
-2.29471e-13
-2.00958e-13
-1.40376e-13
-7.7604e-14
-2.33787e-14
-9.69568e-13
-9.50198e-13
-9.66193e-13
-9.82866e-13
-9.89731e-13
-1.03015e-12
-1.00671e-12
-9.92317e-13
-1.01369e-12
-9.88755e-13
-9.74396e-13
-9.81167e-13
-9.66178e-13
-9.41583e-13
-9.32398e-13
-9.46642e-13
-9.239e-13
-8.92881e-13
-8.91971e-13
-9.26412e-13
-9.59888e-13
-9.2025e-13
-9.17735e-13
-9.0508e-13
-9.27958e-13
-9.43401e-13
-9.53119e-13
-9.65166e-13
-9.61783e-13
-9.70873e-13
-1.01314e-12
-1.00177e-12
-1.0269e-12
-1.0712e-12
-1.08488e-12
-1.09241e-12
-1.10159e-12
-1.06932e-12
-1.04995e-12
-9.98008e-13
-9.42799e-13
-9.46075e-13
-9.57924e-13
-9.01943e-13
-8.78351e-13
-8.57023e-13
-7.95386e-13
-7.32871e-13
-6.63501e-13
-5.9909e-13
-5.53952e-13
-4.85526e-13
-4.09055e-13
-3.49195e-13
-3.00779e-13
-2.39991e-13
-1.93525e-13