/*--------------------------------*- C++ -*----------------------------------*\
  =========                 |
  \\      /  F ield         | OpenFOAM: The Open Source CFD Toolbox
   \\    /   O peration     | Website:  https://openfoam.org
    \\  /    A nd           | Version:  13
     \\/     M anipulation  |
\*---------------------------------------------------------------------------*/
FoamFile
{
    format      ascii;
    class       volVectorField;
    location    "8";
    object      U;
}
// * * * * * * * * * * * * * * * * * * * * * * * * * * * * * * * * * * * * * //

dimensions      [0 1 -1 0 0 0 0];

internalField   nonuniform List<vector> 
54636
(
(20 -3.0052e-17 -4.47949e-17)
(20 -1.52061e-16 -1.47067e-16)
(20 -7.83036e-16 -2.08406e-17)
(20 -9.30389e-17 -2.93754e-16)
(20 1.92117e-17 -3.13329e-16)
(20 7.79511e-17 -3.03569e-16)
(20 9.43121e-16 -3.12821e-16)
(20 4.53549e-16 7.69635e-16)
(20 8.55309e-16 4.41039e-16)
(20 -6.77767e-16 -6.35945e-17)
(20 -2.21215e-16 2.32137e-16)
(20 -7.20218e-16 -5.74913e-16)
(20 7.08013e-17 3.53929e-16)
(20 -5.54142e-18 1.16104e-16)
(20 -1.55482e-16 -5.57425e-16)
(20 -6.01874e-16 -1.81704e-16)
(20 -5.87614e-16 -3.0782e-16)
(20 -5.01433e-17 -3.08653e-16)
(20 -5.33453e-16 5.8061e-16)
(20 -6.62115e-16 -1.97914e-17)
(20 -2.87325e-16 5.69133e-16)
(20 2.16915e-16 -3.16152e-16)
(20 5.50868e-17 -3.57097e-17)
(20 4.05981e-16 3.92734e-16)
(20 7.67297e-16 1.00908e-15)
(20 5.56433e-16 9.8685e-16)
(20 -7.91171e-18 9.32276e-18)
(20 4.85611e-16 -2.47309e-16)
(20 -1.17171e-16 -6.09761e-16)
(20 -1.16064e-17 -3.71445e-16)
(20 -7.50667e-17 3.00331e-17)
(20 -2.66703e-16 5.21814e-17)
(20 -5.33004e-16 -3.28617e-16)
(20 -5.4789e-16 -4.08872e-16)
(20 -1.58861e-16 4.45461e-16)
(20 -2.13916e-16 -5.63235e-16)
(20 -1.81567e-16 -1.67833e-15)
(20 -6.6479e-16 -1.27813e-15)
(20 -1.09706e-16 -2.95897e-16)
(20 -4.48091e-16 5.83615e-17)
(20 1.1252e-16 4.48139e-16)
(20 9.7891e-17 4.97256e-16)
(20 4.63795e-16 8.89979e-16)
(20 1.01199e-15 1.05021e-15)
(20 3.55645e-16 9.17135e-16)
(20 3.11044e-16 8.16202e-16)
(20 8.0967e-17 -2.70729e-16)
(20 7.21464e-16 -4.22015e-16)
(20 -6.11821e-17 3.41214e-16)
(20 -2.29982e-16 1.00336e-16)
(20 -1.73396e-17 -9.83448e-17)
(20 4.84682e-16 2.73844e-17)
(20 -2.12294e-16 -8.1796e-17)
(20 -2.31298e-16 4.95662e-16)
(20 1.81771e-17 3.28394e-16)
(20 5.10361e-16 -2.96984e-16)
(20 4.34752e-16 7.43614e-17)
(20 -1.96076e-16 3.26964e-16)
(20 -4.52986e-16 4.16645e-17)
(20 -3.71447e-16 2.77235e-17)
(20 -1.60381e-16 3.58075e-16)
(20 -4.44372e-16 2.15932e-16)
(20 -5.91135e-16 1.9844e-16)
(20 4.03262e-16 -2.73423e-16)
(20 5.07963e-16 -7.07006e-17)
(20 2.89633e-16 -1.80814e-16)
(20 1.11475e-15 -5.57896e-16)
(20 7.8073e-16 1.17322e-17)
(20 4.05046e-16 -4.70454e-16)
(20 -5.34782e-16 -1.22798e-16)
(20 -1.15432e-15 9.94559e-17)
(20 -9.89107e-16 -1.6552e-16)
(20 6.61352e-16 3.75828e-16)
(20 9.77889e-17 -1.54243e-16)
(20 -1.31434e-16 -3.45582e-16)
(20 -1.18143e-15 2.50088e-16)
(20 -4.14257e-16 9.26431e-17)
(20 -4.80424e-16 -3.64978e-16)
(20 -1.38475e-15 -2.02796e-18)
(20 -1.17297e-15 2.42289e-16)
(20 5.73198e-16 8.15112e-16)
(20 1.08503e-15 -5.97288e-16)
(20 1.11731e-15 3.47897e-18)
(20 8.54462e-16 -1.72203e-16)
(20 1.47901e-15 1.68812e-17)
(20 8.66667e-16 7.65331e-16)
(20 2.32279e-18 1.85574e-17)
(20 5.25137e-16 1.65335e-17)
(20 -1.02025e-15 -2.71956e-16)
(20 -6.78317e-16 -3.50876e-16)
(20 -6.70054e-16 -1.94027e-16)
(20 -1.02576e-15 -2.59463e-16)
(20 -3.20505e-16 8.58489e-17)
(20 -7.43452e-16 -1.76902e-17)
(20 1.07127e-15 5.1945e-16)
(20 9.97551e-16 -1.74158e-16)
(20 -3.64682e-16 -1.40304e-15)
(20 -1.34562e-15 -3.62146e-16)
(20 -5.60607e-16 -2.36098e-16)
(20 -7.02122e-16 1.27347e-16)
(20 4.93773e-16 3.7901e-16)
(20 -1.88865e-16 4.93435e-17)
(20 -4.45889e-16 1.0794e-16)
(20 7.74349e-16 3.40838e-16)
(20 4.37453e-16 6.50073e-16)
(20 -1.0089e-16 3.90485e-16)
(20 -3.73046e-16 -1.30286e-16)
(20 9.05942e-16 -3.0098e-16)
(20 4.15671e-16 2.35058e-16)
(20 -5.72196e-16 -2.63742e-16)
(20 -2.31407e-16 -1.33643e-16)
(20 4.78988e-16 2.08415e-17)
(20 -1.76058e-16 1.47412e-16)
(20 -8.77596e-17 3.85636e-16)
(20 4.11394e-16 2.93167e-16)
(20 5.85167e-16 -3.34686e-16)
(20 4.01261e-16 -7.15731e-17)
(20 -2.26692e-16 2.20128e-16)
(20 -3.12977e-16 2.82084e-16)
(20 -4.24672e-16 1.85107e-16)
(20 -2.83279e-17 4.48974e-16)
(20 -5.90414e-17 6.63985e-16)
(20 1.0392e-16 -2.40391e-16)
(20 3.75937e-17 -2.74867e-16)
(20 1.22432e-15 -3.9098e-17)
(20 8.39314e-16 6.61743e-17)
(20 2.48492e-16 -1.7009e-16)
(20 1.09054e-15 -8.98371e-17)
(20 5.90401e-16 -4.55088e-16)
(20 -6.77512e-16 -3.12746e-16)
(20 -1.90018e-15 -3.51571e-17)
(20 -9.74197e-16 -2.07728e-17)
(20 5.24932e-16 3.32819e-16)
(20 5.44774e-17 2.61158e-17)
(20 -1.99071e-16 1.24057e-16)
(20 -9.81211e-16 5.59759e-16)
(20 1.41751e-16 -4.65328e-17)
(20 4.16764e-16 -4.50164e-18)
(20 -4.27213e-16 3.4833e-16)
(20 -6.65523e-16 4.42824e-16)
(20 1.0334e-15 -6.63361e-17)
(20 8.0973e-16 -9.10192e-16)
(20 7.10357e-16 -2.85816e-16)
(20 7.95935e-16 4.32802e-16)
(20 1.20373e-15 -1.65345e-16)
(20 1.01004e-15 5.36189e-16)
(20 -1.63296e-17 8.67721e-17)
(20 5.65351e-17 1.47611e-16)
(20 -1.47235e-15 5.80431e-16)
(20 5.14243e-17 -5.29578e-16)
(20 -9.52074e-16 -2.31713e-16)
(20 -1.34407e-15 -7.18773e-17)
(20 8.92754e-16 3.03601e-16)
(20 2.76939e-16 -3.02208e-16)
(20 1.40044e-15 1.55101e-17)
(20 1.23099e-15 -2.59356e-16)
(20 -6.01638e-16 -6.01498e-16)
(20 -9.02939e-16 1.32291e-16)
(20 -5.55071e-16 6.02493e-17)
(20 2.55444e-17 3.70837e-16)
(20 1.97202e-16 2.16465e-16)
(20 -3.59767e-16 -3.32763e-18)
(20 -1.24718e-15 2.00345e-16)
(20 9.75574e-17 -1.51793e-16)
(20 7.31017e-16 7.92314e-17)
(20 -3.37297e-17 4.49578e-16)
(20 -5.57638e-16 1.51128e-16)
(20 4.12122e-16 -7.79702e-17)
(20 9.42747e-16 -5.48701e-18)
(20 -1.05786e-16 -1.91151e-16)
(20 3.91538e-16 -1.22747e-17)
(20 5.0458e-16 -2.47306e-16)
(20 -7.64968e-17 -8.899e-17)
(20 -1.53954e-16 4.06182e-16)
(20 -1.11813e-16 -9.15362e-17)
(20 1.79326e-16 -2.40624e-16)
(20 2.16963e-16 -4.90274e-17)
(20 -2.26539e-17 -4.17509e-17)
(20 -2.21798e-16 -2.43319e-17)
(20 -3.89128e-16 4.06981e-17)
(20 -1.25078e-15 1.93246e-16)
(20 -7.2617e-16 -2.20965e-17)
(20 -1.02164e-15 -6.01331e-17)
(20 -6.45951e-16 -1.24334e-16)
(20 2.18513e-15 -2.52622e-16)
(20 1.61015e-15 1.29844e-17)
(20 -1.42178e-16 -1.58052e-16)
(20 2.74745e-16 -3.51042e-16)
(20 5.74154e-16 -5.96112e-16)
(20 -5.16811e-16 -1.56487e-16)
(20 -9.69114e-16 4.93252e-16)
(20 -9.16437e-16 6.75408e-16)
(20 6.41503e-17 4.2847e-16)
(20 9.96634e-16 2.00741e-16)
(20 -7.87171e-16 -1.46129e-16)
(20 -4.17009e-16 8.62835e-17)
(20 -5.08874e-16 -9.02902e-17)
(20 8.64633e-16 6.10751e-17)
(20 4.75872e-16 -1.01864e-16)
(20 1.47174e-16 4.05995e-16)
(20 -4.4987e-17 -3.3079e-16)
(20 -6.07218e-16 -9.16719e-16)
(20 -7.55273e-16 2.97677e-16)
(20 1.29246e-16 4.66661e-16)
(20 1.72085e-16 -3.1035e-16)
(20 3.83477e-16 -5.69112e-16)
(20 -1.2487e-16 1.8259e-16)
(20 -4.17485e-16 2.47631e-16)
(20 5.14197e-17 7.63917e-16)
(20 4.70872e-16 -5.56108e-16)
(20 -4.44143e-16 1.78379e-16)
(20 -3.10651e-16 -2.27003e-16)
(20 8.62028e-16 -3.49377e-16)
(20 5.9101e-16 -3.21485e-16)
(20 2.21042e-16 9.29273e-17)
(20 -2.83936e-17 -2.62765e-16)
(20 -4.13844e-16 -9.30165e-17)
(20 -2.65828e-17 7.13661e-17)
(20 3.48357e-16 1.1424e-16)
(20 -1.29026e-16 -1.64569e-16)
(20 -5.5561e-16 2.07255e-16)
(20 -2.29281e-16 1.03087e-17)
(20 -1.44425e-15 1.12553e-16)
(20 -5.66275e-16 -4.8579e-17)
(20 3.16647e-16 1.43561e-16)
(20 3.1757e-16 4.49051e-16)
(20 3.89626e-17 -1.09496e-16)
(20 8.1956e-16 -5.6243e-16)
(20 1.2118e-15 -1.91688e-16)
(20 -2.78103e-16 -1.27884e-16)
(20 -5.6492e-16 -4.48104e-16)
(20 4.36522e-16 -3.44916e-16)
(20 8.22403e-16 9.68775e-17)
(20 -2.48724e-16 6.34893e-16)
(20 -8.7034e-16 2.59154e-16)
(20 3.18418e-16 -2.74326e-16)
(20 7.24665e-16 -2.18446e-16)
(20 6.16711e-17 -2.01476e-16)
(20 -6.6741e-16 -2.58182e-16)
(20 -6.83995e-16 -3.1526e-16)
(20 -1.18263e-15 8.53652e-16)
(20 -6.12015e-16 4.20615e-16)
(20 -3.63595e-16 5.09381e-16)
(20 -2.11984e-16 1.17099e-18)
(20 1.00462e-15 -4.2007e-16)
(20 1.02022e-15 -5.36578e-16)
(20 3.85273e-16 7.65503e-17)
(20 1.5714e-16 3.96175e-16)
(20 -1.16791e-16 -2.34655e-17)
(20 -2.20463e-16 -6.24945e-16)
(20 3.55859e-17 -1.82623e-16)
(20 -7.73675e-16 6.13013e-16)
(20 -4.58357e-16 -1.33043e-16)
(20 4.52047e-16 -3.00768e-16)
(20 1.2848e-15 2.97547e-16)
(20 -1.20549e-15 -2.4785e-16)
(20 -5.45431e-16 9.18818e-17)
(20 4.81704e-16 -1.88028e-16)
(20 -3.54581e-16 2.76597e-16)
(20 4.24281e-16 7.90435e-16)
(20 1.96118e-16 -1.33525e-16)
(20 -5.22177e-16 -9.50211e-16)
(20 -5.4332e-16 2.88216e-16)
(20 9.85362e-17 3.58929e-16)
(20 8.35733e-16 6.09408e-17)
(20 1.9877e-16 -4.1824e-16)
(20 4.08504e-16 6.4842e-18)
(20 -4.83346e-16 2.92301e-16)
(20 6.16406e-16 7.8576e-16)
(20 -1.08915e-17 -6.62997e-17)
(20 -2.20255e-16 -2.55262e-16)
(20 -4.09763e-16 -8.05274e-16)
(20 1.81013e-16 -2.00165e-16)
(20 4.71644e-16 -2.32792e-16)
(20 -6.09795e-17 -5.95658e-17)
(20 -4.11071e-16 -3.87157e-18)
(20 -1.15786e-15 -1.4329e-16)
(20 -4.61928e-16 1.31033e-16)
(20 1.65761e-16 -3.65168e-17)
(20 -1.05025e-16 1.21696e-16)
(20 2.05359e-16 5.17776e-16)
(20 1.74776e-16 1.66417e-16)
(20 -6.36834e-16 3.10345e-16)
(20 -5.14646e-16 2.46055e-16)
(20 -4.37543e-16 2.70128e-16)
(20 3.9156e-16 3.31736e-16)
(20 3.30357e-16 1.11229e-16)
(20 5.50813e-16 -9.50256e-16)
(20 6.25504e-16 -8.40288e-16)
(20 -5.91035e-16 2.21635e-16)
(20 -1.21403e-15 6.07906e-16)
(20 5.15818e-16 -6.51802e-17)
(20 8.68092e-16 -3.80161e-16)
(20 -1.31743e-16 5.85452e-17)
(20 5.31146e-17 -8.07377e-17)
(20 6.91814e-16 -2.09566e-16)
(20 3.54425e-16 -1.82905e-16)
(20 -3.86354e-16 -2.53131e-16)
(20 -3.2346e-16 -1.83354e-16)
(20 -1.87111e-16 1.52346e-16)
(20 -3.93688e-16 1.87792e-16)
(20 6.88881e-16 -1.9083e-16)
(20 8.48341e-16 3.5155e-16)
(20 7.93616e-16 3.49854e-17)
(20 1.3752e-16 7.47338e-17)
(20 -9.7774e-16 -6.05234e-16)
(20 -6.65108e-16 -4.62099e-16)
(20 7.52091e-16 -1.48315e-16)
(20 -7.31401e-17 -7.2637e-17)
(20 -3.85781e-16 -4.19233e-17)
(20 6.22421e-16 2.24383e-16)
(20 -2.56682e-16 4.94192e-16)
(20 -6.33277e-16 4.69598e-16)
(20 1.15572e-15 -2.16274e-16)
(20 -1.955e-16 2.73701e-16)
(20 -2.66856e-16 8.23044e-16)
(20 2.42433e-16 -1.42995e-16)
(20 -1.08104e-15 -1.34086e-16)
(20 -2.28278e-16 3.24617e-16)
(20 5.00508e-16 6.27249e-16)
(20 -1.98874e-15 -3.05333e-16)
(20 -6.40821e-16 -1.66054e-17)
(20 8.2808e-16 3.57773e-16)
(20 9.8245e-16 6.25702e-17)
(20 8.09303e-16 -6.6527e-16)
(20 4.7827e-16 -4.88801e-16)
(20 -7.20854e-17 -9.38237e-17)
(20 -3.18419e-16 5.0272e-16)
(20 5.19291e-16 7.5625e-16)
(20 5.20492e-16 8.12246e-18)
(20 -6.2505e-16 -1.32781e-16)
(20 -8.58429e-16 -2.76893e-17)
(20 -1.07687e-16 -6.07765e-16)
(20 8.01855e-16 -2.9288e-16)
(20 7.1675e-16 1.4721e-16)
(20 6.95449e-17 2.72067e-17)
(20 -1.15563e-15 2.03603e-16)
(20 -3.70552e-16 9.64017e-16)
(20 -6.82044e-16 -1.603e-16)
(20 -3.55974e-16 -4.07701e-16)
(20 5.6663e-16 9.40779e-17)
(20 4.46683e-16 1.10941e-16)
(20 2.36218e-16 -2.93227e-16)
(20 -1.05198e-16 8.92721e-17)
(20 -6.92912e-16 1.88239e-16)
(20 5.17447e-16 1.50449e-16)
(20 6.74268e-16 1.57465e-16)
(20 6.13248e-18 -5.66356e-16)
(20 5.00567e-16 -3.12358e-16)
(20 6.52576e-16 4.26799e-16)
(20 7.02278e-17 6.41339e-16)
(20 2.82279e-16 -1.08734e-16)
(20 -1.62567e-16 -7.84993e-17)
(20 -8.47432e-16 -2.07707e-16)
(20 -4.62394e-16 -6.58206e-16)
(20 3.46812e-16 -5.0302e-16)
(20 -2.56189e-16 -6.73187e-18)
(20 -2.84881e-16 2.74182e-16)
(20 2.40723e-16 2.66652e-18)
(20 9.63759e-16 -1.74421e-16)
(20 5.32011e-16 2.46042e-16)
(20 7.69087e-16 -1.82505e-17)
(20 6.56004e-16 2.56068e-16)
(20 7.52013e-16 4.20721e-17)
(20 1.26913e-16 -2.76703e-16)
(20 -5.96306e-16 1.61962e-16)
(20 -1.53075e-15 9.79888e-17)
(20 -4.97772e-17 -6.67224e-16)
(20 -8.1319e-16 -1.84709e-16)
(20 -1.0341e-15 -3.22309e-16)
(20 2.76796e-16 -2.79938e-16)
(20 2.13188e-16 2.81221e-16)
(20 -2.08158e-16 -3.25091e-16)
(20 -2.39908e-16 1.29134e-16)
(20 3.57532e-16 -5.4619e-17)
(20 4.60632e-16 -7.61712e-17)
(20 3.72767e-16 -7.17845e-17)
(20 -1.16344e-15 -3.53193e-16)
(20 3.36238e-16 3.29606e-16)
(20 -1.01322e-15 1.32416e-16)
(20 6.64072e-16 4.09311e-16)
(20 -4.0336e-16 5.24265e-16)
(20 6.12607e-16 -3.17194e-16)
(20 1.4925e-16 -2.62419e-16)
(20 -6.75023e-16 -4.97633e-16)
(20 2.02769e-16 -2.95575e-16)
(20 -3.02157e-16 3.67438e-16)
(20 3.45189e-16 8.03628e-16)
(20 3.07337e-16 3.30758e-16)
(20 6.69904e-16 -4.40092e-16)
(20 1.75143e-17 3.34381e-16)
(20 -2.38915e-16 -7.99788e-17)
(20 -6.81311e-16 -8.10649e-16)
(20 5.24764e-16 5.6281e-17)
(20 6.09442e-16 1.3515e-16)
(20 -1.01265e-16 -6.05066e-17)
(20 -6.38133e-17 5.82188e-16)
(20 2.5258e-16 6.46071e-16)
(20 -8.84037e-16 1.90703e-16)
(20 -6.3635e-16 -2.74914e-16)
(20 4.65887e-16 3.03086e-17)
(20 5.37961e-16 -1.23936e-16)
(20 4.24437e-16 -4.45928e-16)
(20 -3.34262e-16 1.04374e-16)
(20 -1.36503e-15 2.0143e-16)
(20 -1.62095e-16 -7.93165e-17)
(20 1.17486e-15 -1.63445e-17)
(20 7.11587e-16 -5.31532e-16)
(20 1.33054e-15 -2.04502e-16)
(20 1.5649e-15 7.35095e-16)
(20 9.86036e-16 4.5042e-16)
(20 2.87242e-17 1.32035e-17)
(20 -4.52216e-16 1.22891e-16)
(20 -1.31548e-15 1.26969e-16)
(20 -2.02176e-15 -1.92192e-16)
(20 -1.08469e-15 -4.62941e-16)
(20 1.11025e-16 -5.32397e-17)
(20 4.97695e-16 1.89176e-16)
(20 -1.67281e-17 -2.18745e-16)
(20 4.98049e-16 -6.70159e-16)
(20 1.33981e-15 -1.74784e-16)
(20 2.19393e-16 3.07857e-17)
(20 -1.31945e-16 -7.88512e-17)
(20 -2.54751e-17 -1.58066e-16)
(20 -3.68495e-16 5.49659e-17)
(20 6.57816e-16 -2.51394e-16)
(20 3.48016e-16 3.77829e-16)
(20 -1.1265e-16 -2.40894e-16)
(20 -1.41786e-15 5.31607e-18)
(20 -1.34196e-15 3.44637e-17)
(20 2.19185e-16 1.59766e-16)
(20 1.41029e-16 1.91091e-16)
(20 1.07253e-15 -4.91384e-16)
(20 -3.53439e-16 6.96732e-16)
(20 7.57454e-16 -7.3888e-17)
(20 7.87065e-17 1.94633e-16)
(20 -4.29168e-16 -1.93601e-16)
(20 4.72454e-16 -2.43817e-16)
(20 -3.77936e-16 -9.21094e-17)
(20 -1.24289e-15 -6.8445e-17)
(20 1.85385e-16 5.11663e-16)
(20 8.81012e-17 -9.48924e-17)
(20 -2.69479e-16 -5.71408e-16)
(20 -1.02329e-15 4.64856e-17)
(20 -6.40548e-16 -5.00799e-16)
(20 1.60052e-16 -6.47943e-16)
(20 -3.69936e-16 9.15051e-17)
(20 7.8293e-16 3.33007e-16)
(20 6.47335e-16 4.30947e-16)
(20 4.1126e-16 -1.66288e-16)
(20 9.48879e-16 3.3355e-16)
(20 7.79795e-16 1.56601e-16)
(20 1.57676e-17 -6.16367e-17)
(20 2.49545e-16 -1.27886e-17)
(20 2.19078e-16 -4.19526e-16)
(20 -7.85395e-17 -1.21384e-16)
(20 -1.2867e-17 5.91128e-16)
(20 2.22587e-16 6.72912e-16)
(20 3.58196e-16 4.92388e-16)
(20 -1.0676e-16 -5.88726e-16)
(20 -4.7066e-16 -5.0412e-16)
(20 -2.58524e-16 -5.40986e-16)
(20 4.30726e-16 -5.2702e-16)
(20 -6.88139e-16 9.19065e-17)
(20 -8.4936e-16 6.87068e-16)
(20 -2.68393e-17 3.71819e-16)
(20 2.40786e-16 1.96838e-16)
(20 3.68239e-16 -2.07464e-16)
(20 9.29609e-16 6.28655e-18)
(20 1.15631e-15 5.10634e-16)
(20 4.52151e-16 4.67101e-17)
(20 -1.5981e-16 -3.12394e-16)
(20 -6.01279e-17 -6.75315e-17)
(20 -6.58692e-16 9.69509e-17)
(20 -1.35137e-15 2.5722e-16)
(20 -1.01038e-15 -2.64827e-16)
(20 1.45795e-16 -2.45401e-16)
(20 6.87877e-16 2.65581e-16)
(20 -3.5339e-16 1.9359e-16)
(20 -9.16065e-16 -2.6386e-16)
(20 1.31612e-16 1.68764e-16)
(20 -5.429e-16 -9.99829e-17)
(20 -6.68117e-16 -8.76409e-17)
(20 -2.24447e-16 -2.84915e-17)
(20 1.06243e-15 6.11444e-16)
(20 8.15726e-16 -2.98839e-16)
(20 7.05382e-16 1.36252e-16)
(20 -2.98009e-16 -2.60713e-16)
(20 -3.02333e-16 -4.90746e-16)
(20 -9.79417e-16 2.06995e-16)
(20 3.63087e-16 1.33262e-16)
(20 7.53867e-16 1.54409e-16)
(20 -1.25884e-15 -3.01855e-16)
(20 -2.76494e-16 -5.447e-17)
(20 -1.80241e-16 3.25052e-16)
(20 1.23344e-16 -2.61389e-16)
(20 -3.76398e-16 2.85352e-16)
(20 1.19574e-15 2.50654e-17)
(20 -4.1168e-16 6.64217e-17)
(20 1.31404e-15 3.06226e-17)
(20 -5.34361e-16 3.26275e-16)
(20 -2.51149e-16 8.59792e-17)
(20 -2.53107e-16 -1.92244e-16)
(20 6.62753e-17 1.6166e-16)
(20 -1.20881e-16 -4.50578e-16)
(20 -4.25131e-16 9.08355e-17)
(20 -1.29301e-15 2.54902e-16)
(20 -1.23387e-16 2.43253e-17)
(20 5.03938e-16 5.52981e-17)
(20 6.89423e-16 -3.45162e-16)
(20 1.39685e-15 8.08327e-17)
(20 1.30102e-15 -2.08814e-16)
(20 1.02232e-15 -1.64142e-16)
(20 3.25634e-16 1.9815e-17)
(20 -5.27227e-16 -1.81611e-17)
(20 -1.9075e-16 -2.36661e-17)
(20 -7.5708e-16 2.34328e-16)
(20 3.33295e-16 5.87623e-16)
(20 1.19187e-16 -4.89919e-16)
(20 1.97515e-16 -3.02726e-16)
(20 -8.41902e-16 9.48914e-19)
(20 -1.28593e-15 -2.23785e-16)
(20 -7.11711e-16 -5.66919e-16)
(20 -4.57518e-16 3.11343e-16)
(20 1.14119e-15 3.82315e-16)
(20 1.09326e-15 -3.22479e-17)
(20 -4.55948e-16 -7.69892e-17)
(20 -2.39655e-16 -3.90531e-16)
(20 3.49088e-17 -2.91514e-16)
(20 -3.72117e-17 -7.27823e-17)
(20 -3.6993e-16 2.63944e-16)
(20 -5.37823e-16 8.61671e-17)
(20 -1.0496e-16 3.11118e-16)
(20 2.73941e-16 4.8847e-16)
(20 2.78746e-16 2.11966e-16)
(20 -6.35991e-16 -4.23149e-16)
(20 -7.22321e-16 -5.71085e-16)
(20 1.57032e-16 1.20142e-16)
(20 -6.36213e-16 1.39831e-16)
(20 -1.02754e-15 3.36039e-16)
(20 4.41053e-16 3.53701e-16)
(20 -4.03976e-16 2.47362e-16)
(20 -8.69301e-17 5.7297e-17)
(20 -2.94919e-16 -4.41886e-16)
(20 1.87858e-15 -1.70059e-16)
(20 1.11575e-15 4.18844e-16)
(20 1.72148e-16 -7.74902e-17)
(20 -8.22458e-16 -6.86187e-16)
(20 -1.03938e-15 -5.82574e-16)
(20 -1.53475e-15 9.22211e-16)
(20 -9.93618e-16 1.01258e-16)
(20 1.39986e-15 -3.6052e-16)
(20 1.0817e-16 4.74117e-16)
(20 -2.03877e-15 7.49737e-17)
(20 2.24385e-16 1.02094e-16)
(20 1.85642e-16 3.29887e-16)
(20 2.60235e-16 -9.53236e-17)
(20 2.93404e-17 -3.121e-16)
(20 9.83056e-16 1.71185e-16)
(20 -1.55842e-16 -1.07531e-16)
(20 -2.62989e-16 6.42722e-18)
(20 -1.6171e-16 -6.61084e-16)
(20 2.49922e-16 -1.89218e-16)
(20 4.11962e-16 1.30624e-16)
(20 -3.22405e-16 -1.54946e-16)
(20 -4.15629e-16 2.7663e-16)
(20 -9.09535e-16 2.31206e-16)
(20 -5.08525e-16 3.39952e-16)
(20 3.05154e-16 3.87943e-16)
(20 1.61728e-15 -4.49943e-16)
(20 1.37751e-15 3.49023e-17)
(20 9.14073e-16 4.38433e-16)
(20 7.40723e-16 -6.86276e-16)
(20 -3.65228e-16 -4.00773e-16)
(20 -7.10987e-16 2.66349e-16)
(20 -5.42491e-16 1.15576e-16)
(20 -8.54192e-16 7.38702e-16)
(20 3.25612e-16 8.62377e-17)
(20 -3.44584e-16 -2.61812e-16)
(20 -3.03647e-16 -2.88067e-16)
(20 -2.10303e-16 -1.11074e-16)
(20 -2.83964e-16 2.77294e-16)
(20 7.89669e-17 -2.4308e-16)
(20 6.13357e-16 7.78116e-16)
(20 1.54697e-15 1.48723e-16)
(20 9.29611e-16 -1.14424e-16)
(20 2.05975e-16 1.28974e-16)
(20 1.87249e-16 -1.40438e-16)
(20 -5.63428e-16 -2.47239e-16)
(20 -7.1697e-16 7.51266e-17)
(20 2.30683e-16 2.55296e-16)
(20 1.32316e-16 1.12106e-16)
(20 -2.12557e-17 2.42024e-16)
(20 6.73201e-16 2.63773e-16)
(20 9.11083e-16 -1.00212e-16)
(20 -1.01e-15 -1.64236e-16)
(20 -1.33285e-15 -1.72489e-16)
(20 -5.37433e-16 4.20255e-16)
(20 -9.53148e-16 -8.71154e-18)
(20 -7.78029e-16 -7.6134e-18)
(20 6.53637e-16 1.74005e-16)
(20 -5.92521e-17 4.43563e-16)
(20 6.39185e-16 -2.24644e-16)
(20 -1.81058e-16 -1.21758e-17)
(20 1.14585e-15 -7.3704e-16)
(20 6.27973e-16 -6.81211e-17)
(20 8.67698e-16 1.1783e-17)
(20 -7.52267e-16 -4.47099e-16)
(20 -1.38302e-15 -2.41556e-16)
(20 -1.00478e-15 9.28936e-16)
(20 -1.06212e-15 -8.42827e-17)
(20 7.78428e-16 -3.3809e-16)
(20 6.04282e-16 -1.74716e-16)
(20 -6.10778e-16 -2.26872e-16)
(20 8.75022e-16 8.64105e-17)
(20 -1.6493e-15 8.63176e-16)
(20 4.31192e-16 1.54418e-16)
(20 1.10599e-15 1.73717e-16)
(20 -3.06527e-16 1.4266e-16)
(20 2.57225e-16 -1.6324e-16)
(20 -2.19883e-16 -7.16142e-17)
(20 -7.12511e-16 -3.54971e-16)
(20 1.49725e-16 2.01612e-16)
(20 -7.90226e-16 2.32174e-16)
(20 -3.52807e-16 2.21284e-16)
(20 -3.52548e-16 6.36344e-17)
(20 1.86452e-16 6.90833e-17)
(20 -4.73935e-17 -5.78934e-18)
(20 1.41143e-15 4.16347e-16)
(20 1.34647e-15 -2.21847e-16)
(20 1.23153e-15 -2.29245e-16)
(20 1.45818e-15 1.00253e-17)
(20 6.41939e-16 -2.70923e-16)
(20 -1.22201e-15 -9.28574e-18)
(20 -1.04837e-15 1.11382e-16)
(20 -1.13572e-15 -5.66741e-17)
(20 2.68241e-16 9.29139e-16)
(20 4.8848e-16 -4.33262e-16)
(20 -2.41281e-16 -2.81217e-16)
(20 -1.6554e-15 -6.71639e-17)
(20 -3.74247e-16 -3.5349e-16)
(20 1.71067e-15 1.81429e-16)
(20 1.51466e-15 -3.33245e-16)
(20 9.96283e-16 1.55531e-16)
(20 7.56862e-16 3.19707e-17)
(20 -1.87035e-16 1.45532e-16)
(20 -1.5916e-16 1.39644e-16)
(20 5.32764e-16 -3.21976e-16)
(20 3.01749e-16 -4.07048e-16)
(20 4.97833e-16 4.0495e-16)
(20 2.27537e-16 5.5164e-16)
(20 4.03238e-16 -6.76381e-17)
(20 3.50302e-16 1.34009e-17)
(20 6.56869e-16 -3.25419e-16)
(20 9.27895e-16 -4.64911e-16)
(20 -1.19994e-15 -7.55545e-18)
(20 -6.89295e-16 9.6029e-17)
(20 6.74981e-16 7.71356e-16)
(20 -7.04688e-16 6.58292e-18)
(20 -9.3826e-16 -3.22761e-17)
(20 -5.80062e-17 5.91764e-16)
(20 -1.34689e-16 2.81581e-16)
(20 7.36646e-16 -1.32518e-16)
(20 2.95435e-16 -1.29213e-16)
(20 -5.29745e-16 -7.08641e-16)
(20 1.63011e-16 -1.94957e-16)
(20 7.93924e-16 -1.40547e-16)
(20 -2.93779e-16 -1.54821e-16)
(20 -8.52901e-16 -5.04322e-17)
(20 -3.70991e-16 3.67497e-16)
(20 -3.65893e-16 -9.29145e-17)
(20 5.91431e-16 -6.95654e-16)
(20 -4.52759e-16 2.0806e-16)
(20 2.55153e-16 -5.21566e-16)
(20 7.52252e-17 -1.10991e-16)
(20 -6.63677e-16 3.51414e-16)
(20 2.91886e-16 1.70893e-16)
(20 1.23254e-15 -2.92783e-16)
(20 9.76709e-16 2.93442e-16)
(20 -7.53412e-18 -2.95774e-16)
(20 5.0902e-16 -4.31517e-16)
(20 9.5986e-17 -1.22648e-16)
(20 5.50122e-17 -8.32942e-17)
(20 -6.95271e-16 4.13841e-16)
(20 -3.90504e-17 7.09363e-17)
(20 -1.10189e-16 4.29377e-17)
(20 1.06266e-15 1.97748e-16)
(20 4.2757e-16 -1.90481e-16)
(20 6.25105e-16 1.7871e-17)
(20 -2.55098e-16 -3.61461e-16)
(20 2.15281e-16 -3.39151e-16)
(20 1.1057e-15 3.39796e-17)
(20 7.9854e-16 -1.34879e-17)
(20 2.30881e-16 6.20208e-17)
(20 -7.3807e-17 3.73822e-16)
(20 -1.04502e-15 2.15647e-16)
(20 2.69745e-16 3.47878e-16)
(20 -5.81005e-16 4.78926e-17)
(20 -9.00721e-16 4.89875e-18)
(20 -1.40263e-15 4.42926e-16)
(20 -8.83507e-18 -3.57677e-16)
(20 1.54623e-15 -5.0068e-16)
(20 7.63543e-16 -1.98645e-16)
(20 -1.86644e-16 -1.22423e-16)
(20 3.27733e-16 -1.28287e-16)
(20 7.89717e-16 4.34445e-16)
(20 7.06033e-16 6.40662e-16)
(20 -4.91306e-16 -5.3694e-16)
(20 -2.51428e-16 -5.65157e-16)
(20 9.88717e-16 1.97069e-16)
(20 2.09353e-16 6.15408e-16)
(20 4.53778e-16 2.24674e-16)
(20 5.08726e-16 -3.79391e-16)
(20 -1.89723e-16 -3.43466e-16)
(20 -6.38814e-17 -6.1793e-16)
(20 -3.63105e-16 4.4303e-18)
(20 6.22063e-16 -6.17673e-17)
(20 5.5798e-16 -2.48232e-16)
(20 -1.92879e-16 3.40416e-16)
(20 -8.07883e-16 7.00769e-16)
(20 4.58317e-16 4.12593e-16)
(20 3.53815e-16 5.53217e-16)
(20 3.20819e-16 -1.44528e-16)
(20 -1.34537e-16 -3.56558e-16)
(20 -1.5885e-15 -5.04197e-16)
(20 -2.48065e-16 -5.27023e-16)
(20 -1.61776e-16 1.01611e-16)
(20 5.8929e-17 4.02875e-16)
(20 -6.59654e-16 -5.23883e-17)
(20 2.41774e-16 -5.036e-17)
(20 -2.35815e-16 -1.80265e-16)
(20 -7.93778e-16 -9.09356e-16)
(20 3.38243e-17 1.84146e-16)
(20 5.50914e-16 -6.31301e-16)
(20 1.11333e-15 2.11295e-16)
(20 8.44868e-16 -4.08731e-16)
(20 -8.25601e-16 -7.77323e-17)
(20 1.77841e-16 2.22145e-17)
(20 -3.02763e-16 1.96855e-17)
(20 3.73267e-16 6.68379e-16)
(20 8.57065e-16 6.39965e-18)
(20 -5.46821e-16 2.30943e-16)
(20 -2.85761e-16 4.89159e-16)
(20 -4.55608e-16 -2.36592e-17)
(20 -8.51253e-16 4.10854e-17)
(20 -9.07221e-16 1.8767e-16)
(20 8.1485e-16 -1.81206e-16)
(20 6.00589e-16 -4.18377e-17)
(20 1.19011e-16 -3.41918e-16)
(20 -3.71198e-16 -2.77406e-16)
(20 -2.11931e-18 1.31164e-16)
(20 7.33624e-16 -4.1599e-16)
(20 -4.62684e-17 -3.84521e-16)
(20 -4.4396e-17 -4.56485e-16)
(20 7.23828e-16 1.14953e-16)
(20 6.56576e-16 9.36413e-16)
(20 7.88171e-16 5.51594e-16)
(20 -6.30164e-16 4.48764e-16)
(20 -4.70704e-16 2.42156e-16)
(20 -5.48433e-16 4.37532e-16)
(20 -4.60661e-18 -3.17298e-16)
(20 -4.00945e-16 -6.615e-16)
(20 -1.14636e-15 -2.4869e-16)
(20 -5.73002e-16 1.32144e-16)
(20 2.90636e-16 2.81072e-16)
(20 1.93758e-16 -3.03846e-16)
(20 4.04256e-16 -6.48909e-16)
(20 -6.81489e-16 -3.43847e-16)
(20 -2.95832e-16 1.93775e-16)
(20 5.75833e-16 2.17493e-16)
(20 4.59097e-16 1.28106e-16)
(20 3.61703e-16 -3.74272e-16)
(20 1.7748e-16 -2.76689e-16)
(20 5.3466e-17 2.89699e-16)
(20 3.73629e-18 2.04766e-17)
(20 5.46298e-16 -1.46064e-16)
(20 1.34175e-16 -6.19784e-16)
(20 -1.16067e-15 -3.26465e-16)
(20 -4.43317e-16 2.52637e-16)
(20 -8.307e-16 5.46408e-16)
(20 1.05919e-15 5.61333e-16)
(20 1.12312e-15 3.63364e-16)
(20 2.62323e-16 -2.08167e-16)
(20 1.90642e-16 1.73493e-17)
(20 -9.54243e-16 8.54994e-17)
(20 -1.13393e-15 -4.43117e-16)
(20 7.11298e-17 -3.94203e-16)
(20 3.30578e-16 1.94385e-16)
(20 -3.95581e-16 -1.45153e-16)
(20 -3.18828e-16 -2.66909e-16)
(20 -1.01886e-15 1.51177e-16)
(20 -2.30029e-16 -5.18102e-16)
(20 2.46464e-16 -4.3094e-17)
(20 6.39488e-16 -4.24454e-16)
(20 2.42816e-16 3.40478e-16)
(20 4.45758e-16 3.80555e-17)
(20 3.33978e-16 3.25789e-16)
(20 -5.95275e-16 -1.23714e-16)
(20 9.4253e-16 1.80889e-16)
(20 1.85526e-15 -2.59874e-16)
(20 3.63403e-17 4.66735e-16)
(20 -7.60126e-16 2.65455e-16)
(20 2.44526e-16 2.5225e-17)
(20 2.21282e-16 1.92506e-16)
(20 -1.08226e-16 6.4752e-16)
(20 -2.47502e-16 5.90438e-16)
(20 -4.85656e-16 2.19992e-16)
(20 2.41963e-16 -6.35188e-17)
(20 9.7396e-17 -4.12382e-16)
(20 2.89572e-16 -4.2652e-16)
(20 1.75633e-16 -1.03795e-16)
(20 1.35752e-16 -7.18572e-16)
(20 -1.09527e-15 -5.837e-17)
(20 -8.49261e-16 2.98018e-16)
(20 3.71605e-16 3.35318e-16)
(20 1.73255e-15 3.6571e-16)
(20 1.26978e-15 1.59039e-16)
(20 3.27892e-16 3.18525e-16)
(20 -8.14529e-16 3.69238e-16)
(20 -6.3153e-16 3.20541e-16)
(20 -5.92261e-16 -3.70169e-16)
(20 -6.15612e-16 -3.25391e-17)
(20 -2.6377e-16 4.50694e-16)
(20 4.34932e-16 1.8977e-16)
(20 2.21623e-16 2.06135e-16)
(20 -1.38713e-15 -1.29734e-16)
(20 -1.39892e-15 -2.76662e-16)
(20 -8.32757e-16 -3.87426e-16)
(20 6.03292e-16 -2.12175e-16)
(20 9.7522e-16 -1.33524e-16)
(20 1.05443e-15 2.64821e-16)
(20 4.13188e-16 -1.60695e-17)
(20 3.73721e-16 -9.55307e-17)
(20 5.79199e-16 -7.22767e-17)
(20 -1.19237e-16 -1.96358e-16)
(20 -3.22108e-16 -3.71334e-17)
(20 -1.2418e-16 -3.84878e-16)
(20 -5.54404e-16 9.59397e-17)
(20 -4.10214e-16 1.91586e-16)
(20 -6.05549e-16 4.92571e-16)
(20 9.30009e-16 1.99401e-16)
(20 1.99255e-15 5.86001e-17)
(20 4.28011e-16 -4.83985e-16)
(20 4.38729e-16 5.43994e-17)
(20 -6.64951e-16 -4.38135e-17)
(20 -9.79217e-16 3.31105e-16)
(20 5.91991e-16 -1.85656e-16)
(20 3.08067e-16 -3.13957e-16)
(20 -9.73695e-16 6.27386e-17)
(20 -7.42888e-16 -2.82824e-16)
(20 -1.00263e-15 3.65308e-16)
(20 8.45311e-17 -1.14779e-15)
(20 -7.66207e-16 -5.66582e-16)
(20 5.66851e-16 -2.4893e-18)
(20 -3.43525e-16 5.5297e-16)
(20 2.00786e-16 4.69517e-16)
(20 -1.12149e-16 4.91485e-16)
(20 9.04906e-16 -9.44892e-16)
(20 2.74696e-16 -7.78317e-16)
(20 6.45868e-16 -1.34262e-16)
(20 -9.5229e-16 -5.16286e-17)
(20 6.68442e-16 3.43548e-18)
(20 2.48889e-16 -9.84271e-17)
(20 9.41901e-17 1.80538e-16)
(20 8.55974e-16 2.41368e-16)
(20 8.46754e-16 6.60915e-17)
(20 2.46071e-17 5.12612e-16)
(20 -3.99239e-16 -2.39658e-16)
(20 1.21709e-16 1.8522e-16)
(20 5.31858e-16 -1.12734e-16)
(20 -7.51124e-17 -8.33533e-17)
(20 -3.64027e-16 -6.78485e-16)
(20 2.68893e-16 1.32138e-16)
(20 -8.98433e-16 3.57675e-16)
(20 1.4872e-16 1.46937e-16)
(20 1.68031e-15 -5.68001e-17)
(20 9.04897e-16 -9.65845e-17)
(20 -1.80292e-16 -2.47405e-17)
(20 -1.04681e-15 5.09026e-16)
(20 -3.3325e-16 4.29741e-16)
(20 -4.19961e-16 3.21116e-16)
(20 4.6277e-16 3.0964e-16)
(20 9.98933e-16 2.75175e-16)
(20 7.9134e-17 -1.0677e-16)
(20 -2.2303e-16 -5.51981e-17)
(20 -4.89205e-16 2.44237e-17)
(20 -8.71613e-16 -2.2609e-16)
(20 -5.64417e-16 -2.39129e-16)
(20 -2.61219e-16 -3.61011e-16)
(20 1.80369e-16 -2.89293e-16)
(20 9.06876e-16 -1.81585e-16)
(20 6.26597e-16 5.51533e-17)
(20 8.52861e-16 2.02759e-16)
(20 7.13356e-16 3.65648e-16)
(20 -3.1833e-16 -3.69086e-16)
(20 -7.18161e-16 -1.08196e-16)
(20 -2.93333e-16 -4.48184e-17)
(20 -3.513e-16 3.49111e-16)
(20 -4.62257e-16 2.36434e-16)
(20 -5.25369e-16 1.31088e-16)
(20 9.03806e-16 3.85714e-16)
(20 1.95329e-15 2.34283e-16)
(20 -7.49754e-16 -6.45976e-16)
(20 -5.11261e-16 -5.35879e-17)
(20 -8.57147e-16 3.03731e-16)
(20 -2.65404e-16 1.7545e-16)
(20 2.69958e-16 2.36758e-17)
(20 -2.79759e-16 -6.2256e-16)
(20 -3.16926e-16 2.65307e-16)
(20 -8.28194e-16 -4.91907e-16)
(20 -1.86785e-16 -1.13673e-16)
(20 -2.92229e-16 -6.65746e-16)
(20 -3.90774e-16 -5.04534e-17)
(20 7.01801e-16 3.76339e-16)
(20 -2.5505e-16 6.0518e-16)
(20 1.35918e-17 5.302e-16)
(20 -7.01136e-16 3.13944e-16)
(20 -1.45234e-15 -1.10808e-15)
(20 -1.07776e-16 -5.63588e-16)
(20 7.13291e-16 1.38334e-16)
(20 2.40431e-16 3.09639e-16)
(20 9.39856e-16 -3.34512e-16)
(20 2.66903e-16 1.10408e-16)
(20 -3.66497e-16 4.83526e-16)
(20 6.51959e-16 3.90181e-16)
(20 2.58648e-16 -7.80605e-17)
(20 6.50839e-16 -2.95071e-17)
(20 -8.71861e-17 -3.85164e-16)
(20 -2.42599e-17 -3.8021e-16)
(20 7.94859e-16 -2.95994e-16)
(20 6.34571e-17 1.16899e-17)
(20 5.89119e-16 3.05578e-16)
(20 8.84922e-16 -1.02715e-16)
(20 -8.02128e-16 6.58826e-16)
(20 1.35353e-16 -4.57556e-17)
(20 1.17386e-15 -2.53257e-16)
(20 4.11035e-16 -1.83812e-16)
(20 -1.29101e-15 2.51871e-16)
(20 -1.05696e-15 4.23202e-16)
(20 1.80469e-16 3.01044e-16)
(20 3.09456e-16 1.06846e-16)
(20 8.33678e-16 -9.07008e-17)
(20 4.12448e-16 1.182e-16)
(20 -8.39175e-16 1.55069e-17)
(20 -1.19362e-15 -1.23656e-16)
(20 -2.80622e-16 -2.83184e-16)
(20 -8.64523e-16 -3.42359e-16)
(20 -2.8017e-16 -2.10366e-16)
(20 4.07096e-16 -3.06355e-17)
(20 4.26916e-16 2.85731e-16)
(20 3.45659e-16 1.52776e-16)
(20 3.80752e-16 2.40009e-16)
(20 1.19916e-15 -1.12995e-16)
(20 1.37162e-15 -7.64776e-17)
(20 4.11601e-16 -2.68765e-16)
(20 -1.8183e-16 -2.56169e-18)
(20 -1.07726e-15 -1.67161e-16)
(20 -1.02796e-15 3.04268e-17)
(20 -9.45532e-16 9.32904e-17)
(20 -1.26029e-15 4.86519e-16)
(20 1.44807e-16 1.00956e-16)
(20 8.4862e-16 6.13146e-17)
(20 -1.15744e-16 2.55595e-16)
(20 2.80419e-17 2.70661e-16)
(20 3.34399e-16 1.18397e-16)
(20 8.83901e-17 3.61294e-16)
(20 2.63946e-16 2.17834e-16)
(20 -1.1779e-15 -3.75256e-16)
(20 -1.20078e-15 -1.21682e-16)
(20 -8.11883e-16 -4.12506e-16)
(20 5.23587e-16 -3.21286e-17)
(20 -2.15538e-16 -5.9917e-16)
(20 1.61936e-15 2.52588e-16)
(20 -8.67798e-17 -1.44455e-16)
(20 -2.50795e-17 3.51096e-16)
(20 2.76651e-16 3.80084e-16)
(20 -9.78579e-16 -7.31816e-17)
(20 -6.09029e-16 4.63215e-17)
(20 -5.50528e-16 -4.41099e-16)
(20 9.93265e-16 3.67718e-17)
(20 5.83683e-16 1.58653e-16)
(20 1.681e-16 -3.47413e-16)
(20 4.7443e-16 -1.67766e-16)
(20 -3.65996e-17 2.89864e-16)
(20 2.58341e-16 3.90628e-16)