/*--------------------------------*- C++ -*----------------------------------*\
| =========                 |                                                 |
| \\      /  F ield         | OpenFOAM: The Open Source CFD Toolbox           |
|  \\    /   O peration     | Version:  2312                                  |
|   \\  /    A nd           | Website:  www.openfoam.com                      |
|    \\/     M anipulation  |                                                 |
\*---------------------------------------------------------------------------*/
FoamFile
{
    version     2.0;
    format      ascii;
    arch        "LSB;label=32;scalar=64";
    class       volScalarField;
    location    "200";
    object      nut;
}
// * * * * * * * * * * * * * * * * * * * * * * * * * * * * * * * * * * * * * //

dimensions      [0 2 -1 0 0 0 0];

internalField   nonuniform List<scalar> 
162506
(
0.00149792795972516
0.00155234547491443
0.000102987341570498
7.88007265837083e-05
3.9261171481054e-05
9.52642579445519e-05
0.000460219082898189
0.000530893726469148
9.31986275743255e-05
6.34527426481653e-05
6.95896586793497e-05
0.000885912339328799
0.000936995207825621
0.00130187788256531
0.00293168072788414
0.00332121828273449
8.95290224587755e-05
9.28912621771443e-05
0.0013295334184216
0.000677641135632731
0.000910837446506187
7.98737819286353e-05
8.51392248639363e-05
3.87258189304567e-05
4.36015099747808e-05
6.12591501360205e-05
5.67986691273426e-05
0.00570452767032163
0.000106155071932892
9.82012853388139e-05
0.00813397244865237
0.00772218414397573
0.00496183259657197
0.0104495701825576
0.0150001160462157
0.0149413113356905
0.00010060391136517
0.000109813331938159
0.0106576172363028
0.00846627416873078
0.000113129916189768
0.000110713536098934
0.00510620288678331
0.00458268684898879
0.000110747985093145
0.000110630867212393
0.00324962223211624
0.000815451345169266
8.70916404369108e-05
4.53258016731921e-05
8.51773424830119e-05
9.13396772319078e-05
5.00795075763555e-05
9.64904366810091e-05
0.00116123045679399
0.00128205595465799
0.000101217821916948
9.79041678181282e-05
0.000863666232537698
0.00214233559801861
8.25013463372332e-05
8.17068920850732e-05
0.000955065530265978
0.000819809609165981
0.0022843075776531
8.0679199392481e-05
9.25368577399842e-05
0.000109623569070948
9.78212812471837e-05
0.00434964882305627
0.00283514212180301
0.00418238629467991
0.00593866470336623
0.00352940662985008
0.00247432120732957
0.00192500753391537
0.00167943047667127
0.00334068899828123
0.00298453656643564
0.000102683183125828
0.000113685012955675
0.00530414949883132
0.0050706773561741
0.00827090794738452
0.000102931524868817
0.000112842951374685
9.99221835332711e-05
9.02208062476191e-05
0.0101057843392292
0.00566226375621796
0.0131107987120455
0.00962111009370185
0.0145313849936745
0.0125341985204075
0.00871229305587207
0.0116638715326369
0.0150003107240881
0.0150014785236813
0.015001694061023
0.0150004404706598
0.0150003376084244
0.010386222775842
0.0109438238096985
0.000109774116781674
0.000100687858108469
0.0149430594074478
0.0073195035280969
9.82866247418916e-05
0.000107008772013844
0.00569920603800609
0.00570634341726171
0.000110705203841607
0.000113663917709817
0.0093135231721267
0.00803723214236592
0.000111182866369616
0.000110077469959752
0.00788209464178921
0.00485614182128878
0.000110956169281443
0.000110721638993079
0.00380599602532413
0.0033435094640791
0.000115617098152553
0.000112466439716229
0.00230414191886449
0.00112589820241174
9.70042695253698e-05
5.41729386489596e-05
9.42759702872354e-05
8.76792775286063e-05
4.83555475747199e-05
7.64277766393817e-05
0.000744293528106512
0.000702825915259737
0.000112257180326224
9.67104694164888e-05
0.00131428985551939
0.00219557499406132
9.34325867329404e-05
8.75992216960852e-05
0.00272005682540372
0.00373729653147271
0.000107806859140619
0.000106072683990193
0.00351663351626844
0.00824548915772817
0.000106406597492801
9.81122146116708e-05
0.00480105721307053
0.00692064438983479
0.000104860828344369
0.000102389244382448
0.00802706861725751
0.00709552665426634
0.0110144479967362
8.65932484803355e-05
9.60093733848917e-05
0.000105912787651664
9.42711099072063e-05
0.0149278964487249
0.00818244734087376
0.0150011150264413
0.0150007004940286
0.0150003451298458
0.0150008112583276
0.0150010930901254
0.0150004691172374
0.0134255175607342
0.0141995225714573
0.00869058943591341
0.0104563309116377
0.00703887644362237
0.00489618491555565
0.0012631795852226
0.00278946022290675
0.00312931637877916
9.01385529738193e-05
9.62965916512987e-05
0.00143539234356132
0.00168866747180908
0.000103017413272073
0.000110804478301161
0.00318623518261187
0.00532042882514309
0.000110969406748784
0.000111896796899608
0.00415743532347054
0.00515587713804734
0.000110579635851014
0.000108173253898763
0.0027620456979518
0.00275051064732114
0.000105274700175679
0.000108594371317332
0.00251891082784912
0.00135810263419935
8.98319810181327e-05
9.46435707810395e-05
0.00138330441719531
0.000726054115574383
8.71478680092679e-05
8.64054472883543e-05
0.000720563984669444
0.000611223585115606
8.03591649573299e-05
7.61487993314818e-05
0.000697553595377488
0.000640562088621269
7.77310692322456e-05
7.31221719845643e-05
0.000815327954618367
0.000588094484480977
5.39925668458117e-05
5.21296093984672e-05
0.000510133164518551
0.000618127999712676
6.46508604466214e-05
5.75196589485557e-05
3.32091386697942e-05
6.77535900675834e-05
0.000603893245872034
0.000540337320220174
7.23284834822553e-05
7.24052399008462e-05
0.000492132286850634
0.000480862929983925
6.0298791509996e-05
3.5894007674585e-05
6.82098248486847e-05
7.43990654205834e-05
0.000383888753881749
7.05472297355362e-05
3.3707886008702e-05
3.50671980869884e-05
7.43894955230213e-05
0.000504006439170892
8.75696938559372e-05
8.46200567496388e-05
0.00056118075212227
0.000969136192670622
8.65237597952929e-05
8.63017049171942e-05
0.00153095544266619
0.00208124660992032
0.000110615899671757
0.000109307336632506
0.0029398912494292
0.00432639535502839
0.000111647282759526
0.000107227579943685
0.00703028956774901
0.00436781286810926
9.51566564784528e-05
9.55653506598539e-05
0.00442218119667402
0.0049604398818924
9.77719162050994e-05
0.00011548134726595
0.00894253637635749
0.011398141248192
0.000114555037564218
0.000113471315310706
0.0112436600083676
0.00701947170997285
0.000106435051534691
9.44094134630111e-05
0.0149281214499017
0.0147846620438307
0.0132770642227228
0.00587761167178119
0.0116682535684773
0.00941390592013925
0.0122218673718228
9.55657743285205e-05
8.70039200210892e-05
9.01434935378452e-05
0.014688480416666
0.00536372607662148
9.95851989921444e-05
0.00010366937776335
0.00671284917371761
0.00564443189978836
0.000113322098914042
0.000102798332682371
0.00279467569282807
0.00295200665170036
0.00412970094903899
9.71560582137204e-05
0.000110734922226359
0.000113004824636803
0.00010284464480783
0.00766004422875609
0.00509328303451799
9.10190362122238e-05
0.000831313329942409
0.00235087173175209
8.14040978579539e-05
7.01137942296176e-05
0.000880446874407418
0.00101905999270427
6.37793206338091e-05
9.47446946800348e-05
0.000531940702588441
0.000455045468360249
7.79974871460635e-05
4.00560355755519e-05
9.87572703606804e-05
5.99527947486877e-05
6.40393680455088e-05
0.000927474175519356
0.000680675295004165
8.46162406016508e-05
8.28995886336002e-05
4.37521352814618e-05
3.95215287540788e-05
8.37548863403229e-05
4.5750963249694e-05
8.63678262558971e-05
0.000777666895026183
0.00087563109394554
9.75010221117063e-05
0.000103776740098697
0.00128199801958122
0.00117337930711489
9.25375406507503e-05
5.03680919153812e-05
9.53900172411793e-05
9.68414948443208e-05
5.38085198874374e-05
9.33017148466944e-05
0.00115147954221988
0.00236247669171995
0.000113796877933544
0.000106891321727552
0.00267043081440578
0.00135404542392539
9.44100500546561e-05
9.52113325184543e-05
0.00128797284942785
0.00135025741032003
9.68135902340128e-05
6.47615513340637e-05
0.000713113344124866
0.000422693118804774
5.19417443497779e-05
4.29905377910166e-05
0.000288981967840285
0.000373914614165413
4.75839246184598e-05
4.21682667335778e-05
0.000287950103232488
0.000385678796485943
4.75412619310462e-05
5.37202731506171e-05
0.000513933993530596
0.00062290608288878
6.21432456647548e-05
3.35247806359555e-05
5.22984177460405e-05
5.3021492131499e-05
3.83057524156851e-05
6.54543324924295e-05
0.000391890668426098
0.000488545837078867
6.66061328910575e-05
6.29139602016005e-05
0.000864743827176271
0.00041904890533697
5.64763620142513e-05
5.08464332192336e-05
0.000383950384938091
0.00031359827184013
5.87183977028264e-05
7.29503421148652e-05
0.000428176301320169
0.000826515842863426
8.04509856641415e-05
0.000110106152121332
0.00083671249215978
0.00131636249607355
8.93583646638385e-05
9.55002878542829e-05
0.00156154351287183
0.00262342880370352
0.000113733654449447
9.82783342238084e-05
0.00289772560051957
0.00413466352585588
9.60081460937341e-05
9.65796411457677e-05
0.00413528569893666
0.00489665115135798
0.000115127997167146
0.000114692848074317
0.00793507643439638
0.00792059333685273
0.000115009180431766
0.00011499665647383
0.00894416964545565
0.00493981793293208
9.64756171067999e-05
0.000100261087870439
0.00754422084772028
0.00319955871079221
0.00774553527736958
0.00777231943879694
0.0147374057506422
0.0119566912341203
0.0105084812746142
0.00879927493374923
0.0115706187243882
0.013423116142325
0.0110915643319193
0.00476622020911876
9.8526935508556e-05
0.000105250391137098
0.0081997404947536
0.00341709287962131
0.000105877631755369
8.30660059342786e-05
0.00205769918964656
0.00290572542160558
8.69784681266972e-05
9.27777125867755e-05
0.00256159131444858
0.00136870821536022
9.76288959695466e-05
0.000109871468737612
0.000729997074779194
0.0008246915873352
8.52826240125686e-05
4.67740648040734e-05
7.71427054596122e-05
8.44135032698264e-05
3.39688040890486e-05
7.08159432110427e-05
0.000540666216568708
0.000635646997940167
8.54462447342281e-05
8.61081260347145e-05
0.000724650194789768
0.000668523822059222
7.98673655847139e-05
7.57768725882685e-05
0.0005861058430556
0.000545857459055236
7.6390661024309e-05
6.32737860810381e-05
0.000374523622240194
6.72095792562924e-05
3.27117283486383e-05
3.26993593066202e-05
5.5758841332812e-05
0.000389127186841238
6.15295226604852e-05
6.38168160746729e-05
0.000322610614690383
0.000411089881161035
5.45932504956511e-05
5.25694388297236e-05
2.81038107062199e-05
5.04988462939252e-05
0.000424467568432919
0.000488997206528831
5.72611822513005e-05
5.31289019679612e-05
0.000409078391507492
0.000283365291990475
4.34188869934198e-05
4.00520319236197e-05
0.000259925751780776
0.000245966309138895
3.81423739956953e-05
3.92155200550337e-05
0.000250187660537958
0.000184649928433187
3.64225456143875e-05
3.56078003515351e-05
0.000214213909325895
0.000177761828641006
2.96887782167212e-05
3.73477901269362e-05
0.000190594502742235
0.000259673027707462
3.74622387901446e-05
4.28615942419836e-05
0.000295409902449351
0.000342819892263479
3.77771321573298e-05
4.4730385025699e-05
0.00032550564648075
0.000277137206070994
4.3310772759496e-05
5.53122249370799e-05
4.28232921855185e-05
7.00734652754055e-05
0.000311981896561922
0.00038062415014418
7.36612892808599e-05
6.74604027030896e-05
0.000448704930024426
0.000507138337866976
6.27794461667275e-05
5.63987307595619e-05
0.000444738167141805
0.000432264126466102
7.55762501375566e-05
7.25325247850329e-05
0.000491209611460963
0.000494322952593288
0.000610799901143526
0.000492713332798786
0.000304228944853327
0.000435690594941087
0.000835229880230346
8.29695602462237e-05
6.56597577934653e-05
0.000577848868115422
0.000364003635003155
4.64271532197599e-05
5.1111588129679e-05
0.000461611492780463
0.000754082393502259
6.36781293555202e-05
6.7996957577432e-05
0.000473982451667862
0.000390448950508787
6.02725245318686e-05
5.44058067273753e-05
0.000333780191398297
0.000336732649062924
5.50298005300221e-05
5.3053504121121e-05
0.000499954453066157
0.00095029968217589
7.45107556409215e-05
0.000477757878414898
0.000714693078276252
7.38037109742104e-05
6.30515790541798e-05
0.000583361872284053
0.000505543735846876
6.0661433503391e-05
8.15181766190676e-05
0.000380438665256656
0.000461358877254412
9.74409218704047e-05
0.000107522830376512
0.000651347495864298
0.000663806262445694
9.3625856610367e-05
9.2268230874252e-05
0.000973275616982074
0.0017804316549832
9.2236136582824e-05
9.66514719812229e-05
0.00172920899250493
0.00304871885732463
9.71774151887192e-05
0.000114937098864913
0.00275128440072531
0.0028348409189355
0.000115296579834794
0.000115418360827272
0.00519458514536878
0.00411910390456712
9.69177145249826e-05
9.57615804406449e-05
0.00440127747238245
0.00435112362969724
9.59387497603138e-05
0.000107234416664748
0.00760984286204097
0.00412291036417854
0.000107786773664469
0.000112841102816261
0.00320561671171881
0.00234606284945521
0.00011058256515294
8.33151133843334e-05
0.00187510668043251
0.000896896054002885
9.17525587928531e-05
8.11814999906975e-05
0.000521336517776197
0.000299572153667797
5.4882668592643e-05
5.8099708450444e-05
0.000792025603881326
0.000560316200756344
4.65056766716219e-05
5.68064302015133e-05
0.000797803664065579
0.000585236320799355
5.46491676274367e-05
5.32602087032735e-05
0.000417872977771214
0.000423481241199489
5.47454373178062e-05
5.4015755307606e-05
0.000430858941000915
0.000389070103208773
4.96066819221741e-05
4.82820883110016e-05
2.61098692774823e-05
4.10138141803501e-05
0.000285081216065995
0.00024386411285984
4.25258907553147e-05
4.55166589954573e-05
0.000224963902811345
0.000334854489673543
3.98336772539857e-05
2.46655870173989e-05
4.25863401053099e-05
4.4916908956052e-05
2.66125170461321e-05
4.53854770561789e-05
0.000428938690292278
0.000443368913668721
5.3189717592627e-05
4.36763480595915e-05
0.000306326996318277
0.000217334449881071
3.63237062638869e-05
3.85289384243165e-05
0.000182531520216041
0.000174501692999542
3.72428065068434e-05
3.2655351873373e-05
0.000129724432109237
0.000127905944474462
3.19818533354861e-05
3.07492103838794e-05
0.000153127805341906
0.000147392817356141
3.34276985656425e-05
2.6222996542225e-05
0.000126299720417687
0.000140720741533743
2.41603128218054e-05
2.97945207935902e-05
0.000168802259129106
0.00021362795436491
3.02086568422222e-05
3.5690408721763e-05
0.000242960346387754
0.000263738301803148
4.08039597098363e-05
3.35340435654546e-05
0.000246913427799013
0.000212343835972917
3.78864692591249e-05
3.89901270694627e-05
0.000204395690129141
0.00026556765040118
4.76974679451117e-05
5.94078183299589e-05
4.76906326512972e-05
7.56754250318281e-05
0.000303367024416203
0.000370040332406628
7.98115982414252e-05
7.31535247001112e-05
0.000430663062609531
0.000575354193845115
7.03072836559955e-05
8.11293831143543e-05
0.000556369086067909
0.000439101141482504
8.0155202546687e-05
0.000373514364751811
0.000294611322128723
0.000184199222605058
0.000124819738439335
0.000137435358266638
0.000211773952425226
0.000223298522896977
0.000156904519110624
0.000281556625964131
0.000472784018244913
0.00065164940602029
0.00010891175837863
0.000110064127536064
0.000962577340741216
0.00158444018594633
0.000113284297124012
0.000113798400312434
0.00159207973704314
0.00169950788057026
9.76703085384304e-05
9.7602900711212e-05
0.00316651575784019
0.00303974262504036
9.69255376602042e-05
0.000115198952905048
0.0030370045571203
0.00171280246077747
0.000111082137121907
0.000112593388894106
0.00129338523883633
0.000935733764776723
9.5088245900916e-05
8.26713936081301e-05
0.000963406006462035
0.000411937647329607
7.35897393078488e-05
7.27895636564113e-05
0.000425984669133328
0.000409510847085436
4.15984259322939e-05
4.9131423916612e-05
0.000463966264241751
0.000444698869311081
4.79880973675779e-05
5.22958769322575e-05
0.000328519128918682
0.00028780653998235
3.93099183624901e-05
2.58759740061738e-05
4.45164377954107e-05
4.64334541500826e-05
2.96925375767738e-05
4.12276736065149e-05
0.000233930469730507
0.000200647615258085
3.53536149545697e-05
3.0218159677629e-05
0.000230034565640411
0.000189682951407613
2.84174727013406e-05
2.34409698747306e-05
0.000175231710407209
0.000148536216923555
2.27986416901353e-05
1.74636289260725e-05
0.000125632371916813
0.000111445933673168
2.22438953956597e-05
1.82579633235477e-05
0.000107168769474503
0.000108780277425042
2.237614985749e-05
2.32735087838769e-05
0.000107648910168762
0.000106122097244561
2.29463589761504e-05
2.246894100998e-05
0.000106167808894556
0.000107971381398959
1.82111604695812e-05
2.24173197997015e-05
0.000117403168483701
0.000135280492876364
1.78697641207117e-05
2.3240834464354e-05
0.000155090972933324
0.000189091169999448
2.53662033886044e-05
3.09077274597008e-05
0.000212812968228461
0.000181926874752167
3.08014562346103e-05
3.3024438330844e-05
0.000175324068807224
0.000160861960216928
3.8985690373461e-05
4.30188910720879e-05
0.000196567486063298
0.000204902498529117
4.978741592832e-05
6.12347982578373e-05
0.000292961189089947
0.000348048953673043
8.32062269121364e-05
5.38936296129942e-05
6.9797127269308e-05
8.07768376131573e-05
5.87349246087632e-05
9.36924109006799e-05
0.000445778103615669
0.000548331873260835
9.57660082959384e-05
8.75089497659072e-05
0.000419142897295232
0.00045468451761605
8.08692760995591e-05
7.61860284026304e-05
0.000495727960654269
0.000570165688060446
7.9592190290286e-05
7.68622866042768e-05
0.00057074297727325
0.000522050023942723
7.24942013555522e-05
0.000507784491568466
0.000360789386885761
0.000410856402534939
0.000383180949542841
0.000434722342549232
0.00050847453244337
0.00062647898756564
0.000111612161148751
9.79856485992685e-05
0.000760779289837322
0.00105676328438004
9.56874434365315e-05
0.000816045948497366
0.000766807195988758
0.000720711210697147
0.000944330908948165
0.000110140955287478
9.55675907928715e-05
0.000976990474250133
0.000972826788815182
9.27712920983782e-05
8.84660881060035e-05
0.000948880207248945
0.000595018696145144
7.66566822174104e-05
6.59881119541545e-05
0.000713591840562184
0.000639826429751491
5.96310086790243e-05
5.95938154489838e-05
0.000727211648089735
0.000593320243053459
6.46339630640546e-05
6.52911005969333e-05
0.000429474268006022
0.000345233042982869
6.14314378113396e-05
5.35161606681017e-05
0.000332313890364358
0.000304353692254576
5.12109208340505e-05
5.02282450601454e-05
0.000255782836333828
0.000220500165842658
5.84196053158174e-05
4.91018548792056e-05
2.98451473588705e-05
4.30299630010985e-05
0.000216326347908267
0.000181941338670518
3.62321307644385e-05
2.86800145880558e-05
0.000196980103799865
0.000190354102717924
2.44247323461632e-05
2.0813862362842e-05
0.000129791488030402
0.000145663864501847
1.61668206360861e-05
1.79001516661354e-05
0.000132797521143833
9.69642695933943e-05
1.99209202245331e-05
1.60149175659787e-05
9.70880272731726e-05
9.47758674559714e-05
1.92164164465862e-05
1.67038741920567e-05
8.56372064322624e-05
8.06275198270707e-05
1.90454318997247e-05
1.69376823276226e-05
8.34912630993097e-05
8.96853045911009e-05
2.76171541855209e-05
2.08044485046099e-05
9.73808445399736e-05
8.18192152558287e-05
2.49246307037198e-05
2.61565629615958e-05
8.69545120622147e-05
9.39524243106787e-05
2.98728151697736e-05
2.78237688986755e-05
8.95754439186374e-05
8.61801989352595e-05
2.08776674693895e-05
2.47879071600989e-05
8.13163472504323e-05
9.27045327790637e-05
2.03144268578591e-05
2.29914454044023e-05
8.94931568457403e-05
8.32536151864007e-05
1.65600723218908e-05
1.73235560498069e-05
8.32101807530352e-05
8.7671256990094e-05
1.70564037681903e-05
2.0665735056557e-05
0.000102397603753596
0.00010956166677458
1.66279282014688e-05
2.03695759464768e-05
0.000107177886951622
0.000146030973935935
1.86463986051528e-05
1.78519795602208e-05
0.000182557187782521
0.000153809689401684
1.86666936590702e-05
2.08170371857666e-05
9.63353122058645e-05
0.000102240293558496
1.57676862130219e-05
2.25178318915912e-05
0.000104232428323003
8.97596392506311e-05
1.81235480980302e-05
1.78679419686985e-05
8.17756265720982e-05
7.96579345815544e-05
1.67271932989406e-05
1.96995700612107e-05
9.03417252982467e-05
9.61830202017279e-05
2.08025062527704e-05
2.48969514505767e-05
8.49078605553162e-05
7.92898900178123e-05
1.95845922727544e-05
2.51904040351362e-05
9.5068373883044e-05
9.81519426162551e-05
2.60179074170039e-05
2.46623739910089e-05
8.75407826584855e-05
8.8841589491794e-05
2.60250775975717e-05
2.08563976080493e-05
0.00010384389203318
9.4072324416381e-05
2.10884266565325e-05
1.63206408704565e-05
7.89790183496338e-05
7.92041156595205e-05
1.83445601600949e-05
1.77138996825703e-05
8.82088153487037e-05
9.60373139449497e-05
1.99212834279586e-05
1.56398627351883e-05
9.13410544094245e-05
8.88775354970804e-05
1.97499231553727e-05
1.85127758237896e-05
0.000126963088067398
0.000160778475280018
9.15535078867118e-05
7.98392368724703e-05
6.09935399470109e-05
5.94167371589935e-05
5.9705038610745e-05
6.74089780091584e-05
8.71994142268891e-05
0.000126574086739522
0.000248302195121425
0.000334304780867229
0.000498893057406716
0.000653110334856119
9.51334833659553e-05
9.20496231785165e-05
0.000668658086831295
0.000555234323128333
0.000100803484528993
8.18982121306595e-05
0.000493272367851281
0.000429898797326044
7.27282280391107e-05
7.00735702196432e-05
0.000460618893106443
0.000472210678490079
5.75385913898105e-05
5.61346381888718e-05
0.000519672486310387
0.000410013843286849
6.17361410829187e-05
6.59716493508389e-05
0.000358341537930518
0.000297309773433883
6.49536210141194e-05
5.75387419323796e-05
0.000266700213925031
0.000272687406358433
5.66448373077332e-05
5.23340766655848e-05
0.000212359599025173
0.000197603536215517
4.85473491171e-05
3.41823677808578e-05
4.49668220472338e-05
3.97857219615287e-05
0.000167947584225906
0.000185800480926824
3.07652045570669e-05
2.28690716524726e-05
0.000154376847717862
0.000166561681287237
1.92049803586876e-05
1.96894929606183e-05
0.000119730842086066
0.000108162865624016
2.18854602229139e-05
2.15425389571128e-05
9.82318912951383e-05
8.37168333284617e-05
2.34741340249012e-05
2.27286185369891e-05
7.51749648566496e-05
6.9516976465633e-05
2.25692315006258e-05
2.29151083193136e-05
6.06019569130935e-05
5.42640954049177e-05
2.42092100125011e-05
2.39616610456615e-05
4.96906041507217e-05
4.5367753208653e-05
2.31847690323678e-05
2.09998622416216e-05
4.3085463116325e-05
4.01158419275954e-05
2.30152001498032e-05
2.46362183507545e-05
4.04979222916365e-05
4.0289866515857e-05
2.46246967726462e-05
2.36542024205375e-05
3.9867176608552e-05
4.12310364817749e-05
2.26574205714606e-05
2.33325325857223e-05
4.19092600545361e-05
4.53844533592822e-05
2.24536202668088e-05
2.50357672737829e-05
4.99115605650985e-05
5.56089817337231e-05
2.38616812591334e-05
2.29076585132955e-05
6.16327223884421e-05
6.6895636824497e-05
2.34204593758604e-05
2.40472254120183e-05
7.671538848079e-05
8.62276011630896e-05
2.34878672483279e-05
2.40626650229857e-05
9.39886186474111e-05
0.000120265579790917
2.33660798665201e-05
2.21064036016917e-05
0.000118286440135441
0.000116936771477302
2.17200219932033e-05
2.24833071959346e-05
0.000149500163765449
0.000142412283267402
2.855425633407e-05
3.6289315368834e-05
0.000141469817719507
0.000153560852789154
5.13669726890959e-05
4.91329157268609e-05
0.000174048461212691
0.000183001959335397
6.40720336299347e-05
5.32722521055388e-05
0.000223518789364762
0.000251237387776911
6.21365562732786e-05
8.32930197528537e-05
0.000363128362580295
0.000464515690054043
9.54723538745383e-05
9.11047507601655e-05
6.14368905710578e-05
9.86183846977833e-05
0.000612521849655714
0.000751422726816377
9.4098407337393e-05
8.9250372886259e-05
0.000688776317977713
0.00066636810812986
8.33387909421983e-05
8.07485979271429e-05
0.000590072970044471
0.00067743539509329
9.2274359502438e-05
8.09030223042029e-05
0.000732036429166973
0.000958346239121257
8.14031371688039e-05
7.11944196046356e-05
0.000640765310954024
0.000650234871644308
6.58020808689623e-05
8.70864937146509e-05
0.000560354533047141
0.000785184563893912
8.61215918163484e-05
0.000110696306254617
0.00120694126815673
0.00109400393549167
0.000117005066066873
0.000139749092653044
0.000967474629484741
0.00085195612783558
0.000143575885101531
0.000119808406950062
0.00057329545071727
0.00053266422678001
0.000118038409000026
0.000108038486542877
0.000614110805003977
0.000430039200539491
0.000394705666755732
0.00043125257243407
0.000548387990722127
0.000107480924241685
0.000137654655027398
0.00081718263587915
0.000874381333221064
0.000117560759603685
0.000103904092547787
0.000862451171335996
0.000604547266464241
8.49144603223976e-05
7.76080897902245e-05
0.000430909542840414
0.000449178362502035
6.85307437037499e-05
6.11410618737279e-05
0.000429268006359628
0.000477362815768922
6.03356110717826e-05
6.91035173124651e-05
0.000494426687757842
0.000382208598821779
7.59874826690847e-05
7.49065324850847e-05
0.000342782682467519
0.000285287258749768
6.78733618568179e-05
6.82398153548347e-05
0.0003176709881794
0.000225881329196614
5.86806157693616e-05
5.4239397745705e-05
4.35115176443449e-05
6.05129635011299e-05
0.000221593421381123
0.000171976280315813
5.49417670055147e-05
4.79318050489957e-05
0.00018604614081639
0.000182120767962074
4.86069712659353e-05
3.63460261370245e-05
0.000100507713270347
0.00011310676440328
4.83325823518529e-05
4.90646482196313e-05
0.000106436623090632
9.57626585090739e-05
5.12679832596203e-05
4.52364768745042e-05
8.06547959721555e-05
7.84534159269148e-05
4.08933725078822e-05
3.8176930276297e-05
8.15685640674833e-05
7.83682331485963e-05
3.84737209960751e-05
3.71443849591069e-05
6.93445781496893e-05
5.43620255475226e-05
3.54451877323744e-05
3.52781722120185e-05
4.48708713502123e-05
3.83508761213927e-05
3.32384194807272e-05
3.15249434953617e-05
3.47842836936711e-05
3.26946564170685e-05
2.95046012702645e-05
2.89393848756802e-05
3.15619735474995e-05
3.05530641185036e-05
2.74554434839294e-05
2.74990371863858e-05
3.01692442137919e-05
2.97007095779354e-05
2.63213605326408e-05
2.6626628230964e-05
2.97469457879547e-05
2.93271220555717e-05
2.65205624579209e-05
2.63248938709359e-05
2.88868996669542e-05
2.87085506540971e-05
2.73288218195451e-05
2.75674352318273e-05
2.95295050223146e-05
2.94982502722964e-05
2.73033310246544e-05
2.7070461465255e-05
2.88094842443326e-05
2.88567755583945e-05
2.69954203064525e-05
2.70485480180702e-05
2.92536666935627e-05
2.9501582243158e-05
2.62885248799006e-05
2.68927088001742e-05
2.89645045391319e-05
2.93814701430123e-05
2.74352689618504e-05
2.72462283073314e-05
2.97827856716439e-05
3.05584134215688e-05
2.82663811676559e-05
2.81379561856841e-05
3.09184451208755e-05
3.18898797509692e-05
2.97060620268068e-05
3.04079311592019e-05
3.31137034987669e-05
3.53661734499233e-05
3.2457720234705e-05
3.37853703999424e-05
3.90041440533398e-05
4.55790816774193e-05
3.61359178494906e-05
3.6779514299258e-05
5.54550534821778e-05
7.14714164713406e-05
3.897489581488e-05
4.04432019197294e-05
8.10342941109304e-05
8.6756864872479e-05
4.00890316511124e-05
4.31660386457335e-05
7.99903286586156e-05
8.50612535361915e-05
4.61121701994987e-05
5.26129516741949e-05
0.000107316513179627
0.000117724463296642
5.33641166554796e-05
4.23322523680645e-05
9.57940231037047e-05
9.38903099022498e-05
3.27415749150642e-05
2.9455697067908e-05
0.000103266547417623
0.000101574830036102
2.54183129237559e-05
2.66664440677375e-05
0.000108711194357303
0.000112878640761854
3.14776489670437e-05
3.92731703155677e-05
0.000108911630118374
0.000101253364615756
3.73754359675191e-05
3.2614150254771e-05
8.16057274126203e-05
8.08584109549985e-05
3.75585246668753e-05
3.16872282948205e-05
8.3045012489503e-05
8.09289205958974e-05
3.20836303028799e-05
3.11987475750786e-05
6.9360213069226e-05
5.48222955619397e-05
2.92739910082702e-05
2.89635494905526e-05
4.39597400942681e-05
3.70835650599406e-05
2.67247206991088e-05
2.60916676343514e-05
3.32326883129704e-05
3.06691862367385e-05
2.42559492911993e-05
2.40986187447247e-05
2.92794563149528e-05
2.81925951305078e-05
2.25565723661197e-05
2.29350198236635e-05
2.77689010253849e-05
2.71073469468271e-05
2.20139971418191e-05
2.23682173356843e-05
2.67793716234456e-05
2.63224302989703e-05
2.19413465621967e-05
2.13271703011249e-05
2.67399252236125e-05
2.65165032576812e-05
2.19102464989906e-05
2.20544581893045e-05
2.60816160143002e-05
2.60445623087725e-05
2.20998646292206e-05
2.20187561519362e-05
2.66514665536295e-05
2.67129815751296e-05
2.22223801264376e-05
2.22848213869628e-05
2.61021176743061e-05
2.62621268986239e-05
2.14962192039512e-05
2.1586965460965e-05
2.65793698672993e-05
2.68947818778884e-05
2.16187522420577e-05
2.1342706403107e-05
2.6942030013016e-05
2.74109983957913e-05
2.24696162229773e-05
2.21063055961638e-05
2.78335811444756e-05
2.88500020986746e-05
2.34927966399573e-05
2.35996106192139e-05
3.01195559362866e-05
3.24923174138218e-05
2.54944968052732e-05
2.63696977298134e-05
3.62640746035621e-05
4.28320563883808e-05
2.8285753640127e-05
2.82375294435246e-05
5.38054382874597e-05
6.69045273141808e-05
2.98634051224464e-05
3.07830551217977e-05
7.78020914689155e-05
7.87636170342747e-05
3.02873506453101e-05
3.59409988241032e-05
7.99029752511938e-05
7.82226461252889e-05
3.24344347087917e-05
3.0592640751743e-05
8.11338367145144e-05
8.03441950537634e-05
2.63628776686415e-05
2.71180768319254e-05
6.95206037278212e-05
7.01924078608229e-05
2.65811297363537e-05
2.5017026919685e-05
5.32340677848495e-05
4.67531431289886e-05
2.5301772216688e-05
2.34887856080624e-05
3.587583548388e-05
3.39644461820338e-05
2.32793223374808e-05
2.12921997918729e-05
2.99382668705111e-05
2.9238640144177e-05
2.16745831636165e-05
2.01290309724793e-05
2.76502683486296e-05
2.72433473299794e-05
2.08764962532196e-05
1.95624920414811e-05
2.64643864356476e-05
2.66835893145973e-05
1.99547663804936e-05
1.99545554726039e-05
2.62190334575802e-05
2.58155868204661e-05
1.98715656969005e-05
2.05842806853752e-05
2.54689690688623e-05
2.64088691588638e-05
2.04275137521289e-05
2.02680917021264e-05
2.64232979411909e-05
2.5407120370255e-05
2.05314647364415e-05
2.04546710075264e-05
2.54807247225482e-05
2.60758440437273e-05
2.02437156308696e-05
1.96805520084547e-05
2.61725923183888e-05
2.57689040993103e-05
2.02569924583249e-05
2.07342854504522e-05
2.65192080031886e-05
2.67911920741776e-05
2.01727661866661e-05