/*--------------------------------*- C++ -*----------------------------------*\
| =========                 |                                                 |
| \\      /  F ield         | OpenFOAM: The Open Source CFD Toolbox           |
|  \\    /   O peration     | Version:  2312                                  |
|   \\  /    A nd           | Website:  www.openfoam.com                      |
|    \\/     M anipulation  |                                                 |
\*---------------------------------------------------------------------------*/
FoamFile
{
    version     2.0;
    format      ascii;
    arch        "LSB;label=32;scalar=64";
    class       volScalarField;
    location    "200";
    object      omega;
}
// * * * * * * * * * * * * * * * * * * * * * * * * * * * * * * * * * * * * * //

dimensions      [0 0 -1 0 0 0 0];

internalField   nonuniform List<scalar> 
162506
(
1.0345109974023
1.07661825539883
11.785635262621
12.4495957063091
16.6335716014086
14.2585705710469
1.59027602290191
1.2183244077598
12.9040131744841
13.6380660395964
14.1861245385672
1.10881830801858
1.11131658599042
1.01921594946694
1.00298049624577
1.00607072283796
13.0955832824137
12.3548789615997
1.02202736748124
1.46606815318074
1.66572457888912
13.3401689878445
12.7729296536415
16.5121417984785
15.9606933576404
14.2447932326915
14.3964002770387
1.00632407395471
11.8143757272367
12.5091827200139
1.0024106960806
1.00026650024249
1.00199762846344
1.00002299550336
0.999894509866903
1.00379901097349
12.294099293325
11.6840030113923
1.00902109367058
1.6190204767779
11.672997393773
11.6196994767583
1.47102044141927
1.67965607172418
12.43132263297
12.0560068823245
1.1399535134926
1.65960361637488
14.5181259450797
17.1148230987458
12.4965717031371
12.7377044982599
17.8384626423463
14.9943037001618
1.81332857502232
1.52611830155206
13.6490037145418
13.1535646283334
1.44843536584917
2.41222545035572
13.817072578307
12.6470115842643
1.60133065047313
1.03328995736783
1.00676594519926
13.9019360320315
13.0361244854897
11.6869158793214
12.002458089936
1.00216341131327
1.00816371071492
1.00253183182962
1.00060283962508
1.00199239958884
1.00655143262705
1.00760883512879
1.1200835999774
1.31298935129355
1.8497205940444
11.9884521368989
11.953260509941
1.53240181601043
1.00559825020544
1.0017902312875
11.811441214816
11.6054415083997
13.1762209900422
13.9108967709673
1.00388405891166
1.0100040047708
1.00011760982722
1.00011100494234
0.999955640484728
1.00000182045595
1.00047027753184
1.00002775340876
0.999912182383968
0.999839476008333
0.999860210140253
0.99992308839452
0.999913002185189
1.00004732048482
1.00906712147208
11.680582458872
12.2896222735931
1.00372060168344
1.00227578897654
12.4965942479271
11.804147859981
1.00620011386374
1.46888089840444
11.6100199367473
11.6697584112076
1.61850783990189
1.88056987661212
12.724494828186
12.7292529792236
1.88180832174213
2.02043116013534
13.4199647049884
13.0096083388329
1.80743040218722
1.21735352383399
12.3969397806905
13.5338489864095
2.28593736207189
3.11166745015034
16.2309189646303
18.9490456333699
13.510314984017
15.8230990300632
21.7773502769097
19.448010861186
5.72826375795291
3.60462174620894
16.8257541658149
14.652286892535
2.33573551070631
2.66061196305458
15.5961491355051
14.9065301976461
2.43033631507194
2.66618613878785
14.6605849499046
13.5245934139131
2.52094427074681
1.83661543760107
13.2115020210279
15.2974366086312
3.19406211147379
2.07702888017483
13.2957414216128
13.6020687863085
1.88366907799478
1.01321958747329
1.00525615695611
14.9669423876558
13.9111836840435
12.8154070511562
13.6253564104863
1.00477211561677
1.01060974974024
0.999925124222144
0.999940193414526
0.999911650205691
0.999769576674675
0.999802959068872
0.999922025921845
0.99997586423044
0.999986148895597
1.00050462582248
1.00007360146856
1.00035588322106
1.00213487819211
1.01995769366932
1.00330885374278
1.00433183404506
13.0739494125761
12.3333041568765
1.01948490433936
1.07036254123192
11.7628796537805
12.0304693004077
1.13312659678906
1.67636510089631
12.4187725393789
12.9948429754333
1.80500147994512
2.01897450007175
13.4132756567629
14.6137029895776
2.73501420096526
2.74788857443959
14.6352649504393
14.1965474647884
2.60862103131906
4.38029912248165
17.4532122316001
16.5670946302116
4.19649975428532
4.86901023621986
19.8262623368806
20.3775776679592
7.56517851586927
8.23106673113754
22.4226154017357
24.5387415855674
7.94557269279851
5.94793817618926
22.6293803169184
24.415554817073
6.83574184006934
8.93993409684462
32.1975399828144
38.3474032381792
11.0842398438616
12.382496269203
34.4617678505971
37.3122733979386
54.1382615082335
32.0019260984409
13.9701085883468
12.6391561921614
30.0772250171336
28.5537796363578
12.245084507711
11.8798269161676
29.9721940951726
40.5647336255906
29.1484381743197
27.4414760456022
9.20577396697835
23.9758041165541
32.5244932940238
28.6462991365283
19.6722324224738
7.81888180134038
24.4908229196373
20.6068874592051
6.08288905188035
4.32472893830828
18.8775478019249
16.6885336131323
3.19993041152261
2.95985401826564
16.0787494422354
15.2883838041889
2.75582344739002
2.07572091315721
14.863372411362
14.153485350319
1.98353755851746
3.52581941822188
17.1323347174584
17.1379416257145
3.48581343689504
3.09091896421235
15.3369716297225
13.226377589684
1.69013355501437
1.32003236074863
12.4084187953991
12.4014252078222
1.32872127873996
1.01034393915547
12.8009994084871
13.6086987877524
1.00482129693374
0.999955129894086
1.00005122758226
1.00101024033697
1.0000322488887
1.00459139067691
1.01696290671839
13.8699302350415
14.9182942083654
13.8559396007648
1.00534199653754
1.01138117406141
13.1299495464714
13.2725958332612
2.09852407865071
1.54314371142472
11.9440083377976
11.9906309906212
1.85635008916871
1.00790303485105
1.00225602296911
11.972540523167
11.6715594589378
11.5794549979759
11.7742794644543
1.0020305658213
1.00591042415109
13.012523198172
1.03252500735884
1.00643554410715
13.8643168102694
14.1613283672879
1.10204393376887
1.10379120834447
13.4366361411357
12.7321860280939
1.31369517181967
2.01800111921901
12.5954317492157
16.0140904132015
13.5478548282517
13.2671852182726
13.7992790550671
1.16681096387888
1.15138188390798
13.1131162909314
13.4797177953772
15.4106460636458
15.3805359624823
14.4627937838111
17.0622303581193
12.4681530883752
2.09642354089758
1.55146663225636
13.1431943125855
13.6570866456312
1.65303924521854
2.26257706579477
12.7038596480271
17.7920598519266
14.9512357127987
16.2934139555157
18.9427544277926
13.6840719904623
3.75512025493566
2.36339253703263
13.518655549851
14.1596715749397
2.59240499462677
4.35627327371093
17.2877599678674
17.8695760412011
4.46163257422343
4.48548688625156
17.941443553142
25.4998649896063
7.22178080316726
9.75637204168818
36.5057963416033
44.8664133215032
11.2437204089139
10.8287222494468
43.1601557051479
52.0921154070933
16.2504587937136
16.1001549414775
46.9555438078275
40.674750756181
15.5411047262442
13.9860272234949
34.4363228024321
56.5135937060906
41.2217159390568
43.8620045257178
54.5483761968504
36.0527708971243
15.0811783191899
12.9394184906507
34.7743169985168
32.4202063565554
12.8037941843902
12.0710540555102
33.9713125279177
32.083290358045
10.4325868728191
8.95297863145385
26.6987123560515
23.8998595135162
6.92385008795468
6.47918810021874
23.807289667458
21.757431410145
5.71741859082299
3.67184403165371
17.6668782620246
16.8705741929388
2.6216685170827
2.19037210528582
15.6088462205416
19.5022730264256
3.86923141258147
3.73977706964789
18.3531745419954
18.3337681408737
3.7455323501203
2.04821954000163
14.8214523067838
14.0847840530159
1.91173767783127
1.91592795627203
14.0793623372349
13.2250047316344
1.69043182677122
3.1044220879784
15.3372079613112
13.5831058370548
1.91021653729334
1.25922551967467
1.00128803998917
1.01041954213429
1.01817078802221
1.00081982391824
1.00030752542099
1.00016528133497
1.30022246281071
1.11919287873197
1.35729255590375
3.21760628170835
15.2979866387549
13.2092299398882
1.84653534875741
2.5297578781227
13.5313939847327
13.823191418694
2.43045093550136
2.472044603147
14.9296639250574
15.6585094735778
2.7600356940712
2.55227977602414
14.7300941235583
17.1685520652533
4.02699649250898
6.29873604534955
16.4061677560047
21.8708634369434
19.6319271031262
25.0733288307935
28.8458901352091
20.919897363069
8.65685188719616
8.15126906268173
21.0107097362169
19.7414896154955
4.89571356094494
5.97749635224017
22.1123513758206
24.7820660704765
8.62717738079168
8.89710223551558
23.5316380126416
26.0070015150358
10.0167642688691
29.1686714600215
33.5296541507758
43.4679602523039
32.4679125911461
13.5294001939854
32.8248121510616
34.4755614443712
14.8065013408201
15.9708909246083
39.0586726155256
39.4440413439186
57.6531008521348
41.1131300075842
17.5163527639088
14.9898094224018
36.2257719102862
38.1869358488889
13.0358421914749
11.8959757007782
42.5460034464859
44.1945569159439
11.7010271302977
11.3349060239289
45.0372812410035
45.3480863741046
11.2923892888405
17.4190292716158
54.1898860729388
54.0371920617937
17.2438395365147
23.3474811427967
71.4081567667549
70.0014365258728
22.3438005583694
21.5122767970706
67.1429732926145
62.6355110716969
20.6828235989352
18.4592657455248
57.2294918774818
50.6732089162324
18.546443553092
20.9524620592248
59.5352914948744
47.0139533074701
56.014668259364
37.8579251596572
15.9122653045793
13.1902082436798
36.4491605185518
40.2652639874958
12.3547642080078
11.293014230887
38.4665309485455
36.0896458652233
11.1358798452297
8.26601517035338
30.4491011995596
27.8445966635279
7.59328827014225
5.11680539680771
3.31847696809842
1.67695671118061
1.78022867312967
2.29305745409296
4.54850002400024
23.4465269447428
22.5421830613706
4.70026882628906
4.45797456780139
24.4092203434487
26.6804871269768
4.93963170735392
4.90136178626016
26.0806121659856
28.2895338481587
7.48805801560239
7.23737291589626
29.0031343030233
30.3148605568993
7.14993501440969
8.75558652061405
33.1839045832343
30.6037934964302
9.06138076848766
7.05120440616566
27.3167327546893
4.74696080213721
9.43929619307693
30.5870110579465
38.1764628629961
11.7934820034211
11.1792017225565
37.0491739389983
31.254693403506
7.74539437649057
4.84630247991748
25.4124666555253
25.6192382956517
4.79489488260566
4.8257514959511
24.6199924522069
22.5845617747303
4.69222285260819
3.97869770465414
20.680963400656
20.6445276227445
4.00326559239765
3.88736482590245
19.4683340998326
15.5074341256913
2.12245672384985
2.12947523103406
15.4929341116691
14.8127181755708
2.05690648631009
3.7599998356782
18.3120022227015
17.1300884399697
3.50281610815176
3.53832493602228
17.1283010168002
14.1430991600952
1.99324969724432
2.67843930251348
14.6655890965924
15.2818585350274
2.75804968035366
2.94218972901605
16.0348026362654
16.9463033825504
3.51367852202754
4.74525488081651
19.4353587296024
21.5864448045946
6.78875631170322
10.0434755155335
28.8417275087174
31.7879533359397
13.5130757341013
15.0203028233713
40.8201420087285
43.2491593050286
16.7970919150254
16.4156358381498
42.3817640282498
47.1531145639578
20.7872430627918
20.8365221545873
49.818485041238
47.5357716857012
18.0410944405998
19.6510965479163
52.3308086310299
61.86509382657
85.411708364465
76.292169606901
27.9271312155491
30.6898504159346
78.2892897101111
71.3667919585174
28.6160585100951
23.7693212616377
68.0227043189779
85.5397484488068
55.5441052401806
49.1745943813541
73.474649964906
53.4717115056138
23.5455846010734
21.6419711095505
48.6658155524163
49.2829978782747
19.159796192528
17.6696137908579
52.2890906431278
53.3299625945458
17.7642111959685
17.5224547288694
53.8435460503573
70.4459952594061
24.2151770331319
24.3426458212818
70.8188169124503
71.1282985473422
23.70035811473
23.8417565620708
71.1739883603874
96.3632608966235
34.5756142511875
33.8756122823758
97.0490661892337
95.7657602381465
32.5631711693398
30.6818944384624
90.7241469846164
79.0966528912385
26.22295471933
20.5292552384902
66.0007446916946
73.801899433454
22.9465629116525
23.3497266688906
80.7373439198552
83.7882737782989
24.3308279815247
22.0957467430715
65.3075943280851
49.3650364914256
58.1646194112807
39.27577979472
16.6827440331231
13.4830245281678
37.8998311208758
42.2953661168495
12.6100611832731
11.4107935914228
40.3310648201627
34.3253935409015
9.19929639138518
8.64944568059702
32.879428880083
5.82418211199101
4.05702612458571
3.84297340957012
4.60338574611904
2.65947921183366
2.29894235595725
2.06313515362033
2.22859815952892
1.45132417136714
1.27253497408982
2.34868141853082
17.5292542939592
16.867676391602
2.23265573408234
2.16977446255564
16.1810424953252
16.1472491107365
2.15324352781866
3.97508484018474
20.4910372753644
19.4159712600575
3.90506938582393
3.82416018032478
19.4295240412476
15.5312513854609
2.18298425075252
2.89735907180582
17.1087302953503
18.0302725518227
4.05209172682491
6.48928723784427
23.3511413406551
25.7298115211988
7.96637381304253
7.66119894636077
25.6651406600881
30.3759980782198
8.71345113823994
11.6667553862116
35.362772633934
40.2741492788362
11.9819619394737
16.3073121224766
48.3622824015115
56.2100502589388
18.9529586634613
29.3446425405965
83.4764671503187
96.8267253751593
67.166914946724
65.9370072289987
95.61157949826
90.4607689542206
30.6098449060886
36.3413861121384
105.460698160285
106.087562532343
42.1742617288367
41.2245826638592
107.557077433997
131.39631799294
46.1222533007753
53.163629216166
147.585168661411
142.413694417728
50.8714264248537
51.9936624247306
141.385710474644
143.797943183793
52.5101731657912
52.3894643792054
143.926978734051
145.018537802325
52.3260712822483
52.5613228573976
145.250557513977
145.556781583297
52.7541731402814
52.0698598078556
146.106465361987
146.240068326843
51.5307330220785
50.2674248754802
148.138487036004
151.470826425214
50.3376404358254
41.4307392416214
131.418362094702
96.5433673302211
30.6186954811461
32.1070591403641
108.314792296327
113.735694474913
33.8217754359896
36.1172174413645
120.51684151726
86.6172818503646
24.7250143349619
25.988677319286
90.2513279237022
69.9038124471403
23.1986505549035
17.3811379731926
40.793548640081
61.485082478942
51.7835677374188
54.4770177526624
65.6006801102818
42.8252509156986
17.9082025469035
14.2922018269681
41.4652502857057
39.4149006322274
13.7636027587865
12.9703642528896
44.3950585080126
42.286905483367
11.5919627064024
9.4374437485074
36.3333851825173
36.5979411722043
10.6979743362298
10.3443859320062
33.8868357126523
5.72121470427564
6.36115739189593
4.9821698079227
2.31423407951665
2.48127511864023
2.20204908994796
4.32160976394969
24.3354061691918
23.223503936442
4.20934704934848
4.13140805903832
21.9532403139428
1.91442641618148
1.16202806372415
1.14771061196986
2.21397492491417
16.7715745756205
21.5703256703029
4.02312832782348
4.03189789904631
21.766201485203
19.7543216301281
3.5632987798857
4.47947705309455
23.1043046777634
28.0426876286804
6.9537654345695
8.82400738855243
33.1647147630058
33.877335772217
10.507534209157
9.04017724315548
31.3621370364481
33.1522757294755
9.31357798760501
9.79474812273019
35.5299862631325
43.026658010197
12.5335765965681
17.3009444724642
52.3139539904862
55.2909523152507
19.362681148678
19.5951672631739
57.3790412555815
67.0145719072453
97.1081549990931
95.2687783910654
31.6817013877138
37.9083905905316
113.882531701713
127.134322755079
48.1585941625787
53.8983087278588
146.720924410377
192.672316610928
59.6779891698893
65.8940960398612
258.227026470681
295.103551117255
66.8632911760809
70.6902504873131
283.722490818264
277.244172386365
68.4177144348195
70.4973499457043
277.80539043105
276.995823938412
70.9488026089509
73.6746771703068
280.322731584973
284.993695264074
72.8803863451174
72.5316436051625
286.322652997139
286.233611218922
70.9587332227532
73.7419895431666
287.303045517473
289.908552376401
72.8887031693101
71.7431398380916
290.090038250345
290.139404020828
72.6905121894754
73.3718313722654
289.755708961867
289.252924059366
74.6987258782133
72.0839966488566
288.051448249692
288.421575704016
72.8160973835706
72.4453298416228
286.614158888081
284.158927818041
73.0647728679909
70.4209375852582
281.259746717818
282.266184994068
69.6424058312099
67.0751366865023
281.874961851224
287.213130612
67.8159407072755
63.7539068010911
298.844964969205
259.13212766998
62.4455256346576
61.989566609587
247.736079582506
238.772749670311
66.2990665245892
64.9372362172969
232.99155847912
230.225679870939
67.3388104054349
67.0205452785039
227.439320125543
227.757502879656
69.7155604516998
68.7011159022484
228.149414276056
228.374450934625
69.6091748211852
68.4303686536529
227.495273608484
227.748970959147
70.3085091542166
69.3280032213671
227.561557059063
227.71855972112
68.9030259648639
68.2604199798677
227.467854197067
227.229262927316
68.7920788075901
69.2202544940809
225.63107223167
225.169606997885
67.6378028215947
69.2621195549524
225.510203994251
224.944849386583
69.0318922318088
69.8458724619503
221.688900822176
220.501690136141
67.1707406519633
67.7244625555369
222.220213903864
224.421353579056
65.7312540318701
68.8770947833546
230.973704090028
242.157059466075
65.1566754426153
66.3928174489101
36.5819973083552
23.9420492825332
13.2992184144519
10.559048846363
7.121252850997
6.01118517617832
3.57305116067379
2.80089393785833
2.46875432738437
1.85855418428363
1.80226533661291
4.13586899749904
22.6569071708916
23.3842878077268
4.32662138592873
4.545281607553
24.9492399148118
25.1187528235043
5.06185777990325
6.76685808062704
32.4938019029746
30.9133188206816
6.54148331493491
9.70635120020343
38.6437127962543
39.9233647178771
11.5085416111164
9.66676899607861
34.4530121517056
36.6065231582688
10.0070137738176
10.3536338144791
37.3055835362755
45.2932831654539
13.4491163124256
19.0723608841576
57.7640668707688
62.8683409677695
21.2161758711644
34.9871321238894
75.5393334526755
105.863736942018
95.3247053973234
123.216105530516
39.701450475205
50.1059081893589
144.620271639907
191.962276303058
56.9186483899806
72.4704764556019
290.98803987787
333.519131520177
73.3973988747008
73.967847427847
314.919708092717
298.789856657841
71.3102521142094
77.1424136945847
292.090787585266
288.673013243325
77.9895133700982
82.2470828152107
294.702773316999
299.838686407022
87.0288882001819
92.3436920152938
305.739674509613
309.699652735122
95.2446756818627
98.8483066534285
310.517466496964
310.969254230188
101.335682056884
108.620846504338
312.92222542659
316.47901597987
107.297088583631
106.316166504399
316.201142918025
315.76141555353
108.064275994477
106.3669137089
315.334733018893
314.037968856206
106.484418323891
100.007048495867
312.22453924036
311.944491557509
95.2466234947858
90.8811961480082
309.682192425073
305.093226705673
87.7493434868154
83.3923443967593
297.842034817062
290.380858861598
79.0415692853751
74.3437626630185
285.15610864832
294.756113541876
72.7887922347859
67.9369058079725
311.180894180914
256.595601574164
59.2903312861183
57.6907896358891
251.851099408387
165.972374097445
44.067358847963
47.2711933496373
174.48637672
189.66070667819
50.5045649972332
53.9046152856592
212.517317874653
129.277689241788
38.3948566628464
40.6291078820254
140.974763422981
93.6043956314495
26.2845729471791
27.3445862086322
98.5331795036884
75.2153124855589
24.1041090967544
24.6320351214697
80.7239698242675
59.0924924809388
73.2845154160366
48.9250395860359
21.0694066206867
17.1562893943404
48.0445908943412
51.6550070820019
16.1213151842714
13.4827225767257
48.5271913318371
44.4203987201794
11.8046436908075
9.65224119099621
38.1641335751279
38.5778751861658
10.7738124922762
12.2299067075037
45.7245314718073
43.2679711884102
12.2546284597583
11.3731259584095
42.143136046801
33.3178196063983
7.1003385525332
7.11565929154074
34.2657076356002
28.4588760076859
5.77155649580138
6.21874995163993
28.4568649403248
25.635983270619
4.48405492879859
2.57650752206494
18.8749141226053
18.1427530439095
2.49000089707802
2.50551558260153
17.995581438197
17.3750684827975
2.34165605983809
1.27914010613813
1.47437602718648
2.00332631397823
4.31569192741098
23.79823974271
25.3018864777653
4.58857433958769
6.27783988598761
28.1430773503542
28.3049337787224
6.16212208404371
6.64541886897421
34.3884523235605
33.4314012235736
6.50622423447972
10.1150106792611
43.677042685866
41.6938400648296
9.94520423209573
11.7480079552596
43.0869508870614
45.4256346560474
11.8706514019057
10.2936650774608
38.278690379686
38.9183863516897
10.8270454736178
14.3189047615348
47.6418471669433
62.7657176417034
20.1214869022157
22.1178210538817
71.3774687798309
90.4924774154672
125.809185699074
101.560594478813
37.2909395443739
42.8282091425789
144.561912534727
173.316497930349
54.3070733795442
63.1330837531508
237.045668438311
343.571132983052
73.6397083074595
93.4167700287021
452.278652562512
422.297199251942
96.0482927183755
106.352782835491
424.99292196556
504.397287344736
133.539695009149
169.959710042757
641.684726370406
799.956193551653
202.009901006891
215.669455019596
845.633561090578
860.125773897755
225.914680613299
240.996986369499
863.489301602112
867.476635156956
262.709415043428
284.700641568614
865.676884005831
864.140653586002
304.383336977273
318.869685662621
858.227585959628
856.651130174799
331.600135338667
340.430216633519
850.554863643164
851.450948381112
349.531404424209
354.769074426404
848.285694795721
852.435267570712
361.967685972187
369.932683130198
852.866170779015
858.610308175786
377.984829974306
377.048361061047
867.159376400731
870.107974885337
371.696122828576
369.109432327848
865.999407172013
864.205648105322
376.601958636281
380.641350070824
863.873130350502
861.896555433768
373.578221817582
372.304725506987
865.757323152454
862.384073437367
370.626567070435
369.749882510144
864.888063426926
861.423726473795
361.51793336704
353.044502376155
863.079566170603
861.136040454732
343.238951529224
333.095267404071
866.315680578591
867.435091627012
319.167344364028
303.599025626782
874.795473421217
877.295281498488
283.302642710965
262.835324429321
881.687744501928
879.700947068892
242.655761495762
228.564674557511
876.636534044308
860.450811728728
218.068796035318
203.012783555338
810.71395806685
646.276263297678
170.78602444876
135.999325236967
518.193969768555
459.016583044346
111.110220450063
93.6150192680792
459.07021939193
325.580891788449
67.2497604995329
63.2315250590191
298.877330993924
281.412918163434
61.6900099202927
58.9665310728583
265.343506899879
335.559043001771
71.2333179106413
77.9594279121612
367.15924115977
408.071702019715
84.107430482151
100.014161153774
400.198006697584
434.979868167801
121.788855528524
160.973381231376
586.904914891196
704.7382627569
194.496792331612
207.398691163673
741.679440069956
756.038199372004
216.625345914993
224.611366751877
762.106324989875
768.237033016848
239.867588687741
255.890970957459
765.910465815086
767.81348556426
273.731406003545
287.946573677881
761.982994774871
764.122013650918
301.283887380969
311.010672685624
759.317289914261
762.989010584726
320.568500720727
328.39166027356
761.502130097035
765.524549605448
336.509175563726
337.427939357357
764.248295578798
767.169188054279
340.03238031635
341.006570469277
764.050431189397
766.024362253862
347.422867063554
343.460466818294
766.575083073657
767.253861882526
337.458783167493
339.791223623599
770.486724395087
768.709022111392
343.512810783249
344.369040945881
760.775382092977
756.313822836075
337.142072440877
329.428181369127
755.329768539811
751.159265981734
322.394850667942
317.493709914859
754.124240898577
751.293495954838
308.314184706044
300.153715112066
756.84624082693
755.159671310511
287.973581739208
274.699932272827
759.517201997187
757.096497819232
257.474322235579
239.534146278596
756.969133697047
749.645147039591
222.755364546421
213.889330836286
743.746352799641
730.334619834767
205.098592512561
193.008873862877
696.172841261897
582.189728342335
160.037986850312
118.536194006056
426.000424966686
482.796409694274
148.213673306262
174.384954790468
546.420338687469
567.448831825587
184.659675140199
192.603200797836
578.345897098481
582.397226498046
199.694553260287
212.124174740572
589.259664144596
589.477456275448
226.104658561306
237.847699213771
594.682826207924
591.935367026296
248.67129249797
258.590034156831
595.800581184666
591.217009275549
265.729793183534
274.079530415325
594.837584662612
592.496952528817
278.624657981065
284.684430845336
595.867835453205
597.251351666277
292.19742957469
298.101409050153
599.982602997063
606.561494633074
297.266680828147
295.396159405885
607.576074867495
605.303542710911
293.341230487242
297.163177620857
605.142522602073
604.51640969324
300.827606463993
296.048267294005
603.133346230717
605.307933436122
295.33514671001
291.882558823427
603.045677486865
603.315855499658
291.147278101164
283.812311090171
599.781331174251
600.863836572715
276.703297127676
268.476998693939
596.607842592708
600.622406385001
259.654160311883
248.807035620529
596.278759618171
600.41692678084
237.308470105073
224.840145249427
595.076972853002
597.174195581274
212.792534083401
201.116413431046
590.628572092653
586.349965508448
195.052254951834
186.857313129504
575.50116115617
553.61102857925
176.22754377957
149.321026744104
487.724837057872
400.212286483945
127.623910127848
99.8205519301523
355.235078833313
353.741945720627
88.3467114055989
79.0539641651213
319.20360177144
311.037714787056
82.9272858195582
90.5033260875114
321.753202650612
334.074072100851
96.6590325629457
141.319237589778
426.45867769808
436.081841137076
152.711786647703
170.52413016278
438.689561653019
439.407837654935
189.594430999874
206.059364693258
439.455628794855
441.550318900312
219.338846016347
224.465827846106
443.509537942099
443.525914168908
228.699677547687
226.330696565292
444.522485404346
445.61671273299
227.134469819402
226.422432861617
439.671129536033
436.462676804977
214.421901939992
203.763597565526
435.704645209917
436.166716021166
189.45603560536
171.815181900364
434.57230292926
429.839606439939
152.710085584958
139.770694317394
420.297579228174
396.058035894304
125.698552552304
97.7235838742395
351.501400105155
332.919986190357
82.666549023835
94.6719365941442
372.418096655235
375.98998228828
87.7633625829649
84.7529732663898
403.163873293499
315.688071090133
70.6695541924469
60.0996899319245
208.492773205194
298.665513603464
70.7176751267725
79.4097565401289
365.481389175715
341.515840671606
80.2707315293674
76.0803227019736
321.63315650804
309.998841833144
75.6185403607901
83.0483981964711
313.662893609955
319.565789853843
89.0500330412918
95.2885478801126
329.38409104499
335.614747737551
103.438620315171
115.33806229618
338.865095140192
339.816994135067
125.742469651092
134.853340234054
339.165443961535
339.094323362158
141.719014843483
151.320055172035
341.223569677451
344.942816790779
151.266790703632
150.596414921105
344.487176478885
343.907701675984
152.301483024517
149.209067397687
343.5092319165
342.630716177671
146.470882570957
136.669899259885
341.45831101634
342.399577409892
125.729431044309
113.847785899463
342.446031346309
341.185352631778
103.375481822882
99.9476477484203
84.3749776805158
80.5394581377722
75.8637095229602
72.9264539425468
63.0148591816564
59.6722699504733
55.5606048512241
53.4088704496982
44.0000843041252
41.9561868576131
38.1404765676161
36.7251720354697
34.0691748945019
32.3824979126984
30.5878101136979
29.2876634388548
27.178471788828
25.4711647826849
23.5540867315451
21.9170283347623
20.1264807124941
18.3413551965355
16.3078765807669
14.6943129779124
10.2765365831101
11.5554050412288
9.23534249865221
5.88517119644501
2.86578934101517
2.03201470185487
1.42549230788801
1.54021858290468
1.62321159813676
2.63636106302544
18.7886303220025
20.7414513530024
3.89660915112546
6.81297890468912
28.904548276183
37.552558145366
10.8095722313495
8.29722731375293
36.1595583544296
36.9699479165783
7.00228356059683
6.57098484300872
35.3625981161406
47.4439682036841
10.1394976795251
10.2160274423532
45.6469414762847
47.7104514024783
11.9670662457626
11.3667599187369
40.9903756208211
42.1371852578104
12.2100567713326
15.0284822195062
51.287552415638
67.7537012856007
20.8174831452585
22.7164676246984
77.309844267599
100.156382417423
144.759119069791
114.969529441405
39.0299212728741
45.1610248705765
172.711860343321
223.714867751327
58.5299445300406
69.3219102934093
362.263722451342
552.704144488529
84.7851104222041
139.680443184411
826.350942028437
775.466867120312
141.580627076533
170.593824180405
836.175228369091
1113.21971297243
216.695226124928
295.821438432359
1600.97049605046
2128.58167243344
401.380833879157
436.442269683384
2238.76405531662
2242.01187438175
436.806788301909
444.245938607283
2197.72510702747
2126.03875249199
461.565476543502
481.662841149798
2080.03499805232
2110.6208246294
472.114686198723
443.121401370027
2159.51819510775
2194.25543113928
416.787419401078
409.14302867665
2219.20119020125
2225.61308221146
405.688897758528
409.502119906779
2231.12040535971
2233.61381856427
409.009625822467
411.520262942318
2226.21160147472
2241.90745491682
417.515237768921
416.691515051577
2247.78257624869
2275.33008693559
417.021629582852
412.901001340338
2266.09847826912
2245.47872683424
413.013627965431
416.816290530861
2247.68080219673
2249.11775600513
413.796949289245
415.27039256091
2259.45371710525
2246.2336084914
415.148739231604
415.150994073817
2256.48320592012
2260.20628763656
413.34732498435
409.314599255482
2256.02517721054
2248.24196615186
411.179043719384
417.781887677753
2222.86223135998
2187.74100700744
443.593457346437
474.366680102001
2142.92612366646
2116.20572358669
484.968748386868
467.890023605742
2165.7724734821
2238.39988718375
455.877713670846
454.313067266499
2282.25180132654
2273.51877711731
455.311960027623
412.226144816984
2150.74735238302
1607.91171255391
298.341674147746
217.860956526104
1147.52037924439
908.803952220209
169.300343203544
144.717097765458
843.441235023092
524.926715333646
83.1712760432569
76.7401254535197
449.197376842226
401.20531932091
74.5657884989228
69.4092574253015
353.962803212684
529.392678219824
101.290567421929
114.232997981504
620.723543029211
726.902852310216
125.728950438827
150.062336498774
766.260281299037
943.140573582769