/*--------------------------------*- C++ -*----------------------------------*\
| =========                 |                                                 |
| \\      /  F ield         | OpenFOAM: The Open Source CFD Toolbox           |
|  \\    /   O peration     | Version:  2312                                  |
|   \\  /    A nd           | Website:  www.openfoam.com                      |
|    \\/     M anipulation  |                                                 |
\*---------------------------------------------------------------------------*/
FoamFile
{
    version     2.0;
    format      ascii;
    arch        "LSB;label=32;scalar=64";
    class       volScalarField;
    location    "200";
    object      p;
}
// * * * * * * * * * * * * * * * * * * * * * * * * * * * * * * * * * * * * * //

dimensions      [0 2 -2 0 0 0 0];

internalField   nonuniform List<scalar> 
162506
(
83411.1222782543
83411.7670748224
83411.4508194896
83405.2001341576
83399.4502885066
83382.1865059337
83401.9789242902
83401.6656658378
83380.2431692916
83456.595802033
83459.9008984301
83431.2957488986
83423.8130950989
83417.8136626946
83418.6676580993
83419.4805044078
83419.6643249699
83416.7625903237
83418.3787147286
83421.2392022162
83429.5172155505
83427.8433586738
83416.3219870242
83431.2173122028
83444.1473312695
83458.2219173863
83462.3352711324
83414.9788416518
83414.8570333373
83416.0586128111
83415.7777657836
83414.8678609772
83414.5311583333
83413.8218711432
83413.8995017092
83414.6447385951
83414.8488879773
83414.612473816
83414.4659870875
83413.5382300659
83413.5578842933
83412.391999324
83412.3366396556
83411.0669522213
83411.973201923
83410.913198963
83409.4951784772
83407.346533806
83395.6536129949
83403.379460384
83409.3024214128
83413.0108641926
83410.2584789167
83408.135765522
83412.5355771914
83410.1512365714
83407.5043547278
83396.1199376163
83405.3275021903
83407.7962975261
83407.4796804431
83398.8747449324
83405.3090015684
83414.3943529204
83421.2147661605
83433.9255025073
83414.7406615561
83409.1058974594
83422.056971665
83414.3303076397
83411.474599276
83413.158026378
83414.4288976166
83417.066989431
83414.9746403431
83409.5766393332
83407.7917488532
83409.7409572181
83409.458949963
83409.432950232
83407.6765869026
83409.7175168921
83409.7125400784
83411.494178313
83416.1936343936
83406.0633084175
83405.9862825648
83413.1020472362
83410.0683421121
83408.3349984448
83409.6343710557
83410.1284627448
83411.203783005
83410.8307122954
83412.5399348029
83412.953280321
83412.5601571155
83412.4410351435
83412.7838219013
83412.8884215717
83414.2240842163
83414.165286207
83414.7932451509
83414.927259058
83415.1403942141
83414.9353844543
83416.6241915572
83416.8842786362
83415.7592882595
83415.8613596646
83413.4412293482
83413.4653859596
83413.9397166902
83413.9057777094
83413.7971367496
83414.2941251335
83413.7931138586
83413.2826209079
83415.0146150343
83415.4785427451
83413.4383097214
83412.9297151601
83411.1945170391
83412.2440684504
83412.9244963245
83412.2310883584
83412.1573173299
83409.9203527385
83410.7133788668
83412.5855538068
83411.5910237396
83410.0434026229
83414.1795012194
83410.1991411161
83405.4770178629
83405.3408116213
83406.7848752051
83409.056001437
83407.855859746
83406.7388885797
83410.0061035719
83409.8215066248
83409.1081874047
83408.2914369221
83408.5216472739
83409.3203067511
83409.5945771137
83409.4242854759
83410.2105178127
83410.1963071599
83409.5673707485
83408.4845283976
83409.6042825586
83409.7075792573
83407.0394142336
83408.4471974959
83409.463354277
83403.1960330669
83405.5724791276
83409.2489273546
83408.5627531019
83408.0401055671
83409.7409707009
83409.8140608255
83411.1363008535
83410.9781333189
83411.2677299878
83411.4219460374
83412.1217165093
83411.7672962461
83413.569999462
83413.933767473
83415.7725393701
83415.4910134679
83419.1811063728
83420.0216778522
83420.7479632505
83420.9495510657
83418.1036322062
83419.4783199303
83413.0832319772
83412.7750498745
83413.0057572142
83411.6168810932
83412.6526297336
83413.5104789126
83415.5343968231
83414.966950802
83415.7225216837
83416.1963723572
83419.7636551114
83420.0506679493
83418.8847485154
83418.7392635217
83416.2365734034
83416.0448573669
83420.8403596065
83420.8572687954
83414.2985014201
83413.62412087
83411.8223594403
83413.2009840799
83409.8665384994
83408.2088615344
83409.8038816777
83412.3647343873
83414.9799146391
83413.9390964258
83417.1913417337
83419.0986221888
83428.7991028562
83428.2202644792
83428.4403908258
83429.0328717508
83433.0955574817
83432.9173488178
83418.6541972816
83419.8388513033
83417.4002950676
83417.2239703086
83419.6018497506
83416.3016468072
83416.6763063316
83431.1202926333
83401.2795143472
83412.138333402
83411.5744507872
83413.6997916806
83403.802372089
83397.0376291589
83380.1193355753
83404.3626984978
83407.9567726973
83396.2775464916
83400.8526364577
83407.3926987761
83402.3194552575
83387.7332442668
83375.437229844
83395.5319987045
83399.2320361336
83398.587102374
83403.7422532976
83404.9472551322
83403.5789586627
83402.0251871491
83405.9876391921
83407.0120620802
83406.6229473605
83406.36677405
83409.2014429054
83408.8306324565
83408.9400912861
83409.2430008369
83409.6669595064
83409.0754840852
83410.6842260122
83411.6871647703
83411.0877652359
83410.5728000502
83409.9009725003
83409.4399300706
83410.151660676
83410.3029955504
83408.062473322
83405.0438178663
83409.0477222044
83408.5925548559
83409.9952776963
83409.907160813
83409.5955390495
83409.9986335704
83408.7957694409
83407.4165062398
83403.0528317399
83409.6937270979
83414.764818125
83411.1456504564
83409.4968388357
83407.5975131017
83410.0363818335
83410.8566376603
83410.9599588972
83408.722416526
83410.5796706651
83410.9315576663
83413.1882089742
83416.0687756616
83424.6588684988
83411.6316911915
83407.8368145929
83418.1446921707
83412.9656027249
83411.084787558
83416.6699733393
83416.1339536941
83423.0781407595
83436.4488362261
83462.4659790933
83433.2838209107
83425.620815909
83457.9691994206
83381.4817917036
83403.7776491516
83404.2538137144
83407.6670672554
83402.6603010857
83384.3933953041
83459.3902755086
83458.5298060926
83431.4337690787
83422.627805662
83418.1447682591
83429.3484336204
83444.6545570099
83432.5822082544
83399.4104796509
83406.1861361104
83411.6075865697
83409.7858587227
83407.7456482815
83398.9580017708
83410.9094281395
83413.4031026692
83415.3727613164
83415.6288422876
83412.8733569593
83411.5849142493
83414.9388274159
83415.146311705
83416.9270903226
83416.6490149181
83416.5017050289
83416.9555044452
83418.9669559744
83419.1309536448
83426.9992033372
83426.6145973338
83429.2771802344
83429.638178309
83427.0644695211
83426.7191292295
83441.6423425308
83442.0030548011
83459.8576698727
83459.8134091934
83477.6391541092
83477.2463669668
83452.7222852693
83453.3146079597
83463.1470571419
83462.5322424332
83435.6160590879
83437.4652327546
83419.9044979204
83419.0673226606
83415.0835313406
83426.6884311542
83418.7144763284
83414.3755064019
83394.4836143631
83395.9438585302
83398.6455454137
83394.6015355765
83395.7749060714
83407.8475865309
83440.8885064811
83419.7486917519
83424.1774969709
83449.6226414378
83437.1801861065
83419.7585309203
83402.557620723
83390.7803124641
83435.1338537735
83407.6848939312
83394.9748165732
83395.4948825393
83383.1007335147
83387.4478218143
83396.3126108939
83393.392421697
83393.5911248313
83395.7708164169
83402.7908009592
83401.7149509764
83401.1101034501
83401.4615473459
83405.9462930923
83405.9000938101
83405.85348399
83405.8071933342
83406.1939011844
83405.8807189048
83409.2281408703
83409.0713261056
83409.363545759
83409.4286016587
83412.0752200191
83411.0710646089
83411.7066260949
83412.9890014583
83411.3003370927
83410.7237250697
83410.4307446257
83410.3111533348
83410.5592078644
83410.9466778369
83410.7944863682
83410.3893816164
83410.8907510964
83410.9345757476
83410.9052295116
83411.0257074706
83411.3899465144
83411.1734678779
83410.9723294937
83411.1836506872
83411.3830120411
83410.2472683964
83409.7048790632
83410.0306465308
83413.058178304
83413.4693859702
83411.7133262419
83412.5270496107
83413.8779456505
83411.5552845628
83412.5650172645
83413.1472409931
83417.2622394146
83418.2646585386
83416.7361312515
83420.7327713316
83399.325723833
83411.0485095241
83417.5889719699
83413.4915342728
83419.7239258853
83421.551823725
83424.2656110139
83422.3141323834
83429.3712110983
83430.841183142
83429.6936201428
83429.3915231953
83423.6750376533
83425.8142152072
83422.4053316152
83420.5379601556
83394.4103398931
83409.9794241724
83421.4900225204
83434.0846656216
83431.9990536155
83412.2733214334
83418.1981635477
83436.51204935
83443.9989575786
83449.9312633833
83435.4981472898
83438.5163253927
83444.945715526
83441.5356471171
83445.5109037483
83447.0887530549
83464.614426328
83464.0145095129
83485.8370398139
83486.2966736673
83504.2701094137
83503.9560625903
83508.4597816962
83508.7873056548
83498.3230196318
83497.9038469789
83537.7188397083
83535.6714110123
83500.9268209692
83501.4942896333
83506.2597474005
83506.9901543544
83481.0101557128
83479.7109806306
83452.3139599806
83453.8070359308
83438.3986993329
83437.218683572
83418.6576434588
83418.2176286071
83404.1479600714
83404.4049980847
83373.4634219946
83373.2738601459
83364.8008747488
83366.0393287243
83365.0245125466
83364.1846719419
83363.3307579349
83366.4150593917
83364.61364303
83362.5598730944
83359.6771735457
83358.0736792884
83389.4975139835
83388.519950898
83380.6524712448
83376.0265934214
83406.0972156608
83403.8492414812
83406.4079114009
83397.8429455175
83404.9807330654
83388.222962008
83366.8295616248
83370.4097473102
83354.8205233082
83392.4656647056
83366.4248233566
83356.6054390383
83426.1478935809
83421.103817226
83365.6883025437
83371.0977832344
83394.0873991579
83393.8168648357
83369.9910672662
83362.7750476473
83408.1137622581
83381.0970774089
83351.7067357484
83359.8024823668
83383.4391724851
83374.9479402105
83367.7482320727
83369.0117970518
83352.9940814516
83368.0297470855
83361.2918669376
83354.7598566929
83353.5831482337
83340.7246433346
83339.0168978806
83349.6083345356
83324.109476048
83330.934304818
83313.3870470295
83293.2250725264
83318.6853374216
83320.2572613755
83358.7761272461
83358.7125871436
83383.8063169448
83382.0647156579
83394.0875849892
83393.6744542365
83393.0438656073
83393.5764164484
83401.1949861011
83400.8861892779
83401.144992003
83401.8224381268
83402.5342488217
83401.7738739602
83406.2857614571
83406.6701389759
83407.1980220589
83407.1803409894
83410.3070774195
83409.9162469766
83410.4534818194
83410.6367330363
83411.6220042037
83411.1127823146
83412.0429119304
83411.379787683
83410.2750952768
83411.2214034491
83409.5049010766
83408.4600076667
83410.9829489322
83411.7503044219
83408.7105606456
83408.0606811652
83385.6396859415
83407.3471221504
83422.4042426491
83407.335096439
83401.3304151637
83427.2931494704
83454.369656078
83476.7450673096
83478.127330616
83455.840385794
83452.7987786721
83475.6307079913
83468.3106889227
83448.8245997258
83447.9165169841
83464.0973911243
83462.0496456309
83444.6961902709
83430.8314857069
83442.3891786341
83432.8171190694
83433.317326302
83430.8821675292
83430.9515661761
83433.7605658321
83431.9798783801
83440.8099357704
83441.645564515
83444.406327415
83442.1863666362
83449.7820730348
83459.4208564976
83458.4581143514
83454.9997273706
83451.3328821321
83450.1638182129
83455.0940463764
83456.5797289641
83483.3469837274
83481.1324150663
83515.8453474387
83515.4920074958
83546.1829337094
83548.337694999
83557.007824314
83554.2169592695
83611.4174151109
83612.749780441
83597.3761844371
83596.4137738779
83572.472703911
83573.2281308235
83545.1475113531
83545.2315825049
83561.1011756151
83560.1143650318
83513.5666267347
83514.3442279117
83475.4980696478
83474.2057167317
83444.9103642747
83444.6229258933
83425.0166750018
83425.4809997942
83409.2713845697
83409.2924780642
83391.8883732382
83391.9022938542
83371.405970861
83371.1258861912
83345.1370895704
83345.2792774558
83334.8583846565
83334.4818401049
83333.9176475413
83335.3127430763
83334.5861050994
83333.7780706066
83334.4847054555
83336.8586190397
83337.8479247106
83336.2562201344
83337.2763604996
83337.0385986716
83334.7641423528
83338.5926024284
83358.1402475343
83350.8687724666
83363.8188212105
83368.5459386034
83378.5720309711
83372.4488485475
83364.3075723876
83353.3211394188
83366.4661835758
83379.724745985
83380.3056554762
83365.8092034891
83360.263342672
83359.0148698408
83379.8790050365
83381.4748085277
83394.4328267092
83393.1908045865
83393.9782080535
83395.4183762166
83396.0346107452
83395.143843852
83402.7405020988
83403.1308821088
83404.4514399281
83404.0675061527
83406.5499896202
83407.2044605535
83401.9629541085
83400.6031730162
83403.1664900349
83404.7361873286
83396.2017125267
83388.9363864681
83397.161578836
83405.737910941
83423.9572054141
83446.553255577
83418.9826075619
83424.8793916957
83444.6669980878
83458.0297597655
83421.7830924975
83417.2457473253
83423.7434035402
83433.6275127458
83416.5357614196
83417.6132728237
83414.5897069246
83414.4159281515
83414.143118522
83412.9959628396
83394.7645200049
83395.595559265
83396.707046544
83396.9151833805
83406.0422650407
83405.216433812
83414.7264724123
83415.1259106689
83432.2146208715
83431.6455682768
83455.2264447538
83456.1227627097
83494.7003779024
83495.7180350881
83552.1369549771
83549.9247491232
83610.2686764906
83610.561843364
83670.6535040627
83672.0967137929
83709.83049718
83706.8301733526
83725.7951900478
83728.9176342135
83722.2848704257
83719.3425722072
83685.1873383213
83687.7804743588
83638.4480575338
83638.0561740348
83571.736532915
83570.1626523939
83510.6987949579
83512.585187689
83460.9524442354
83460.9483149287
83427.3916623944
83426.5278532906
83406.106910723
83407.0121868465
83382.3240524804
83381.6266197049
83347.9563417027
83348.1171576606
83311.4275201863
83312.3283048334
83316.5774326015
83316.3796870653
83291.2184625428
83290.8615086983
83294.2882949602
83295.0396422838
83303.7224859176
83307.5845006609
83306.8415573105
83303.0281999833
83276.8796372201
83282.6562976936
83285.344200236
83278.8697856461
83283.3286632529
83289.4420841036
83311.1438308053
83306.9254573379
83310.8138292449
83314.8103800834
83319.5475809152
83314.6339979051
83317.4186446554
83327.2196129256
83325.7940204258
83316.896288225
83338.492235585
83338.6002535
83334.4911704469
83337.2227036463
83334.5989431049
83330.4801688616
83321.2698661338
83322.9309120423
83325.5099543934
83327.0891975566
83358.1647151952
83358.3804654526
83380.3312292748
83379.8182528642
83384.6129364152
83387.7311769342
83389.9103804504
83382.7286721055
83380.8358158857
83382.0152940193
83383.1305206424
83385.0309908242
83383.7902255153
83388.398788163
83391.7016100364
83372.5814934731
83374.6550950302
83388.8184517297
83384.7076502339
83389.6942616232
83391.8232867399
83398.8699416816
83393.4260039099
83399.7471299511
83399.5877957588
83404.3693171487
83407.4239680587
83379.2498213407
83384.0609532847
83384.8321348724
83381.4804131441
83381.7381170655
83384.2279906776
83399.8687498101
83398.0827198674
83376.6548468887
83372.2795262075
83373.6443062594
83374.3894659302
83374.7210749845
83374.2537719908
83381.5721311573
83381.3384453416
83387.7257975342
83388.4328975257
83401.634481487
83401.2530444736
83426.2217470872
83425.943636696
83444.4077501149
83440.979399488
83449.00266307
83451.9981481645
83476.9268111182
83475.5041941009
83504.5917595337
83505.9454084138
83540.1590123397
83539.2237623889
83584.2780317111
83585.4608046248
83629.477729193
83628.7993372504
83670.7090457125
83672.0108455272
83709.2436873617
83708.3454222311
83738.853401129
83740.0749835576
83756.778806857
83756.7017786185
83769.6653491234
83769.7879302704
83776.5163372457
83776.0761166423
83770.7131547673
83771.141531413
83755.3477740438
83754.6823443816
83731.975789247
83732.3972611036
83704.7279556811
83703.5298307464
83664.7187133941
83665.4311530355
83621.5124960593
83620.3739498387
83574.8097221793
83575.9365276524
83532.8949723262
83531.9413407309
83491.7299228325
83492.561843836
83462.9388939979
83461.6083540267
83439.6560146928
83440.7767514352
83419.2672928709
83416.9735618652
83408.8677181187
83411.7143009283
83418.6878845274
83417.2506153126
83457.0756714465
83457.0210405509
83476.3490502638
83476.4236931046
83510.8836468753
83510.4813897499
83541.8315500872
83542.6828547849
83587.0812999995
83587.4525503476
83621.3014967982
83621.9787934624
83668.2931380452
83668.6562604419
83695.7847780632
83695.408050034
83721.2758032597
83722.863541211
83740.0568263741
83739.5750315223
83758.917793417
83760.7188066122
83764.3704651219
83762.9097193192
83752.0479544993
83753.327530628
83743.5535908351
83741.0676454735
83728.1161766712
83728.7500965843
83707.5528268854
83706.8287482084
83666.4536002275
83665.8873901691
83635.1919573702
83635.1224001679
83590.8520936734
83589.8794406252
83556.3265407157
83556.7698524167
83517.5969386895
83517.8161536032
83493.0993967248
83492.4293800062
83449.5048857073
83452.4140273555
83450.6403715647
83455.067281624
83452.6419722363
83451.3320043912
83446.2632851256
83432.197838246
83411.010740667
83386.7588606511
83371.9482778909
83369.4017840961
83377.9570123826
83366.6273355523
83361.7520179331
83361.2106539571
83363.6915232421
83363.8816615019
83324.3093927165
83326.7962569195
83324.5900090068
83323.2456134411
83333.9356862517
83328.433897374
83369.6164791003
83363.8434488721
83368.0680979138
83372.6463960782
83373.9079493926
83369.9409911224
83374.8220360754
83380.2016521623
83341.0126865775
83336.9184356059
83338.2862553819
83342.9780814689
83342.6714478317
83339.2763237426
83334.5700570606
83336.9415474195
83355.0548122258
83350.5564527633
83347.5406864624
83349.2890467218
83348.4919771543
83347.1796298752
83350.7839029029
83350.9246562943
83352.5295984535
83351.3174442616
83357.2388528518
83358.3194129973
83365.112295264
83361.856443946
83364.7428884243
83367.5360342259
83381.8974922964
83381.2375609837
83397.5729076301
83397.3547361327
83417.4621336259
83417.2000057985
83444.9376885573
83446.4814718859
83485.1733998477
83483.3871725267
83537.7193740324
83540.9291863594
83598.0604206623
83593.9557181272
83647.6952439171
83652.7638391737
83695.3029067194
83689.8148125613
83724.4977615483
83730.2098464026
83749.831615292
83743.9535953198
83757.4623527464
83763.243584627
83766.3463890083
83760.6764965843
83755.1721764152
83760.7722583377
83748.4836769911
83742.8027092325
83717.3102557137
83723.1511015968
83690.2044769987
83684.6490345944
83637.8230735411
83642.6293714781
83588.050954527
83584.1588937665
83525.3640496061
83527.8514678903
83475.4796175142
83473.8778620422
83432.408390005
83433.074480463
83406.5260812369
83405.9781647449
83388.2228465278
83388.2910657342
83376.1511527418
83376.0589446705
83369.8367883152
83371.6232787057
83399.2839498999
83396.1983150951
83395.3503182394
83396.9049331607
83349.6492301774
83348.4781113136
83299.7865962852
83297.8112711757
83249.4283696713
83253.0630719114
83277.9272378299
83276.4879435117
83249.7285962202
83250.800528625
83266.233933352
83266.8763702457
83253.0902355968
83251.3588050402
83263.3268111691
83264.9240287346
83250.0927983708
83248.3429202924
83260.8755134735
83266.4242225498
83269.9971034083
83263.4437072542
83268.0453008134
83275.1759947484
83278.9945634117
83273.4051918349
83275.4052930244
83277.1674111024
83295.4358708288
83290.6648246143
83292.5726488776
83299.7683075344
83299.4850636814
83294.471572455
83294.8978048937
83295.7607785936
83315.8850858514
83313.6481778492
83311.7700537372
83309.5891421345
83305.506620482
83312.4297171781
83297.301019019
83288.046228868
83287.6830896954
83291.3576598374
83295.6026675333
83299.2586619722
83296.3366081917
83294.264667598
83290.021619945
83294.0032819489
83327.9025966504
83326.3584172471
83326.9843270603
83328.6008652416
83360.1252738534
83361.7961393871
83368.7957250807
83322.8449820179
83322.4248418621
83326.2425237655
83328.1499776839
83290.9696307498
83287.7768452062
83284.3049772133
83287.7801428588
83278.7083622482
83276.4209940441
83282.1687378574
83277.1573991411
83314.9408986348
83306.7166829238
83307.8283838482
83311.7300944531
83334.2841208756
83334.8868423277
83335.4533692148
83338.2249925626
83306.3621380003
83303.7058090636
83298.673496336
83302.6807128797
83298.790397433
83293.3817815046
83290.8498721978
83295.5386037459
83287.2343164728
83282.8349646539
83293.3806644387
83300.2612383139
83291.579827934
83289.7862365069
83287.422985932
83287.7620121677
83281.2869101903
83281.5348691315
83271.9806119013
83271.6886389733
83256.8184188677
83258.3016986013
83255.9933102954
83255.6531529442
83243.0377661565
83244.2505399778
83228.5677168207
83228.3148028035
83203.1011731303
83204.3282693989
83180.517374381
83178.967544177
83170.3293270091
83170.6253452142
83155.6351922214
83153.3467235573
83137.6453410904
83140.2212767707
83132.5473119831
83128.5693010277
83129.6063362322
83133.5556040949
83136.2755308152
83131.3017237743
83134.1060419575
83139.3538554212
83141.851557414
83135.8817333667
83134.2190014975
83140.6176852135
83139.2921072607
83132.6615287218
83126.8998182998
83134.036300629
83130.0760539535
83122.7870790814
83115.3744145766
83122.8806649054
83120.0324177904
83112.2076641425
83105.7563545697
83113.5087522776
83110.6380592139
83102.7487582109
83097.7432852385
83105.3985754951
83104.713634152
83096.610894232
83093.9965050712
83102.1125936184
83101.070924337
83093.3275904214
83095.4798769147
83103.2913741078
83104.437181579
83096.3891440165
83100.6552802131
83108.6496934317
83110.0064965115
83102.3956612068
83108.3965886446
83116.2631049741
83119.1315791555
83111.628154603
83117.8011165518
83125.1470201359
83127.5017941923
83120.4092026706
83125.0957862145
83131.7128916872
83132.3340740768
83126.0435004261
83126.7016893748
83132.624779805
83129.5873540604
83124.3010752241
83121.6191180049
83126.589663223
83123.9075842678
83119.8950675162
83118.8483230306
83122.9145404028
83132.7403849984
83130.111176379
83147.9969946349
83150.2614646583
83167.5345692274
83167.3836659508
83177.9799161476
83179.4701009619
83208.4230801903
83207.735605337
83226.8676209667
83229.3641137261
83247.3589828522
83245.1602965279
83274.2504254751
83275.7161051987
83309.681185026
83308.8829414155
83340.9245477769
83340.5968081221
83342.9521502587
83342.6616658949
83304.9785874248
83305.5547950809
83266.7398178748
83265.1560124765
83255.1406207988
83255.7907342101
83243.6562038729
83242.099817548
83200.8642566087
83199.3455966654
83193.6959407272
83193.7606023393
83183.2952330141
83184.3090684905
83183.4404027073
83181.8277721285
83191.2262216061
83192.3683176999
83205.8666760328
83205.2625859155
83216.0982208221
83217.4929937529
83229.6317121023
83228.2620005116
83234.4865961919
83237.0051346469
83244.0876373082
83241.7039627142
83243.4306321218
83246.7900805081
83251.4695245188
83248.3234916607
83246.9470668688
83250.2291682543
83251.2608717769
83247.7213375878
83246.0052761082
83248.1749553532
83252.9543471864
83249.8701941921
83248.2213716227
83251.8228244781
83248.380514848
83245.5695690113
83244.6152385898
83247.1423896344
83252.7484613088
83249.1989593513
83250.9077989879
83254.189782333
83249.189532385
83246.9811285761
83249.0726866855
83252.1654303448
83254.1321975673
83251.0930257726
83253.9333304221
83257.3383902845
83253.6996837359
83250.6177961045
83252.4183224177
83255.4971180629
83254.138711441
83250.6250351258
83250.2871939403
83252.8496238747
83246.3226505724
83243.4707571812
83238.0684223296
83239.7130549606
83227.6789328719
83226.0680831242
83215.5060865624
83216.2260908365
83203.3171700444
83202.0018065763
83192.6892192495
83193.8291539677
83192.6590518277
83192.1308194025
83200.4168626512
83200.2709903251
83204.6778407455
83206.0504069575
83247.3209012284
83248.7289817112
83250.8038015958
83249.1102320018
83256.0693506298
83256.7268189535
83259.5981756924
83256.6941048765
83267.5286328588
83268.6216424144
83286.6570570831
83283.4593247789
83307.7815933805
83307.7186030042
83328.6324490223
83326.2473863806
83348.8714146032
83348.5923367456
83364.4381950345
83362.0466362471
83376.7208247489
83377.4714307736
83386.5008784632
83383.8065087828
83389.5726385479
83391.4377095542
83396.9526601573
83394.3382836206
83403.9215436461
83406.647760799
83407.7301638523
83404.6621607877
83400.8026146733
83404.3398231704
83405.3322182143
83401.9113768328
83412.7017189704
83416.5576042373
83416.1702055175
83411.9169260535
83400.511675819
83404.332985271
83403.8182113227
83400.0593374312
83407.793213634
83412.1315428401
83410.1375193073
83406.8198434982
83397.0034453948
83399.5267351861
83396.9693340614
83393.8714403975
83391.2420751677
83393.9404432547
83389.0662195102
83387.4261131094
83375.5950179135
83378.3920453412
83367.25974022
83366.5685987305
83351.9057709509
83354.2055723855
83337.9953653181
83338.3122855205
83316.4222242841
83318.538103079
83296.987626127
83297.0935219603
83271.2165635244
83274.5580944648
83257.6371479979
83256.0869843665
83247.0526614344
83250.0761008488
83248.2747021827
83247.6112320042
83242.6749654537
83244.3838474623
83310.7575635657
83308.0897682451
83304.0726026615
83305.467536353
83304.5089769168
83304.13235751
83349.4603132915
83349.6698399465
83359.9055697973
83359.1950224127
83378.572157888
83379.7753104833
83417.1715783814
83416.4664579815
83334.2545450304
83337.7242679608
83387.1643085516
83384.0290281487
83444.658467842
83446.7220649784
83496.028343409
83494.0869919778
83531.3352458565
83533.6528187732
83556.7457656777
83554.1838280469
83571.2613460632
83574.4074075502
83579.7599442197
83577.1172547755
83580.5097688988
83583.2419509326
83583.0252403691
83580.1635185879
83572.0575022159
83574.5172839816
83564.087480859
83561.3234115986
83537.4829257115
83539.8207930123
83506.5780808244
83504.5629595995
83455.9646369754
83458.0526325809
83399.9727713625
83396.9863739335
83345.4595457657
83349.0293923303
83321.3085438086
83318.6676167008
83314.5048944204
83315.6214782768
83309.0546973489
83308.8091381574
83254.4133457451
83255.5567517203
83267.4712422405
83267.1707659502
83276.3299415158
83277.2138015787
83283.4578307589
83283.2920026849
83305.319282479
83304.8850166316
83312.913531859
83313.8753895782
83310.7314002748
83310.8929919363
83309.2037065776
83309.3268028229
83349.768833877
83348.7555141594
83357.7089443261
83357.748488507
83370.3413225536
83370.7352270427
83391.7728882962
83390.9781593672
83428.2812223635
83428.7839481806
83483.3571594463
83484.4750290223
83545.9874113253
83543.4060398804
83598.4550077564
83601.8006848123
83643.1576782573
83639.3661674888
83671.1420993987
83675.0611467667
83692.09181435
83688.0656427714
83700.1182868628
83703.9811790791
83706.0396707404
83702.213334001
83697.2587864047
83701.0793911067
83690.9227013068
83687.0614710193
83663.7897328449
83667.8215742279
83637.1672106004
83633.435248717
83587.7914397938
83591.2167045604
83534.7173922084
83532.3505668522
83470.3010393244
83470.9311407344
83477.6000573354
83485.5525768975
83496.0373999624
83512.1951425438
83523.2213458129
83516.7137645405
83503.5784671762
83493.3098396903
83478.7221661286
83465.6636935462
83456.5475477184
83448.4244602464
83446.0727589489
83444.1544893464
83447.2694040973
83448.9814022318
83456.0952255839
83464.4633623448
83472.9709711108
83479.3591185324
83478.1220746446
83470.9398476718
83448.0000182128
83407.7608381757
83377.933085214
83357.3033209489
83271.2680794353
83269.4237129117
83267.720939681
83324.6345020381
83313.9140428703
83322.1867040219
83275.7209160872
83271.0526552662
83287.8559431592
83292.6774486345
83273.2901965146
83271.0599668602
83271.76184487
83273.2545807777
83261.2087857673
83266.0850178283
83256.9214535083
83236.701522277
83243.1649133001
83257.1710543033
83266.4281047857
83274.9855066112
83269.843515564
83266.9047557827
83282.0091705912
83281.1482721651
83279.3589042188
83277.3144518171
83269.7732588798
83273.066767076
83264.8519388205
83260.1282930735
83253.5201321607
83258.3176126787
83249.1759552642
83245.2012725666
83248.7162141604
83256.3792864762
83247.5295086949
83244.3158386676
83241.4637072245
83243.7295301814
83233.3587807926
83232.276735504
83221.9563313085
83222.1476756411
83201.0364930674
83201.9249127679
83187.5220428261
83188.4321893221
83169.4604916493
83170.409891034
83153.2922655624
83153.7445152116
83128.4695730677
83128.207099188
83100.6965189418
83101.7175074678
83090.70882499
83090.1540878543
83087.4442510437
83086.6234769432
83089.3888817261
83090.9463529438
83125.9571991603
83124.6784760587
83227.9126934313
83229.0358647059
83368.7849646732
83371.8241242248
83432.5113175995
83428.9176960417
83377.5776796748
83377.5426593892
83245.8384368354
83245.1518195234
83141.9697026205
83143.1547538071
83068.3044759547
83067.797043029
83013.4826595872
83013.627602588
82972.5009825156
82972.4651224164
82943.3929587087
82943.4060909948
82919.6968551791
82919.7475187836
82904.6725808483
82904.4888702041
82891.7186316543
82891.890551341
82884.8688889158
82884.6965066658
82880.2161255809
82880.4597144819
82879.9651014377
82879.7366839751
82883.7492771757
82883.9615276409
82889.9097037978
82889.6866454912
82902.0063645622
82902.1896844793
82916.7253941787
82916.5798807639
82939.5935966142
82939.6807187266
82968.4266137838
82968.4693375598
83009.2712567863
83008.8872240991
83063.6076246117
83064.4180217374
83140.102928607
83138.6396515091
83243.4200693312
83244.5202286869
83377.1264653325
83377.3853370373
83424.5190740415
83427.9731995646
83361.3441772866
83358.7144839174
83218.1867176326
83216.6193507746
83115.2933654972
83117.0548669835
83085.7441084439
83084.076930208
83084.1419571932
83085.2609113587
83092.1295406944
83092.4694790862
83106.3536680492
83105.6665154927
83138.6465563027
83139.3318157235
83156.4120573748
83157.8567534553
83180.2557525505
83181.2385940417
83185.0643763139
83185.3141044669
83201.5525487235
83201.0393458734
83216.7628560752
83217.7950684664
83199.2064066747
83196.7348210294
83176.109545907
83178.5413362317
83165.3858936502
83163.1050384605
83144.7481712
83144.7617579646
83112.4004350371
83112.3701539592
83097.7631627924