/*--------------------------------*- C++ -*----------------------------------*\
| =========                 |                                                 |
| \\      /  F ield         | OpenFOAM: The Open Source CFD Toolbox           |
|  \\    /   O peration     | Version:  2312                                  |
|   \\  /    A nd           | Website:  www.openfoam.com                      |
|    \\/     M anipulation  |                                                 |
\*---------------------------------------------------------------------------*/
FoamFile
{
    version     2.0;
    format      ascii;
    arch        "LSB;label=32;scalar=64";
    class       volScalarField;
    location    "700";
    object      k;
}
// * * * * * * * * * * * * * * * * * * * * * * * * * * * * * * * * * * * * * //

dimensions      [0 2 -2 0 0 0 0];

internalField   nonuniform List<scalar> 
162506
(
0.0150874389666105
0.0150914138195439
0.0162984838059805
0.0164061581243336
0.0167317964511458
0.0165728462897285
0.0151721390902656
0.0151278935979964
0.0164311379232139
0.0158106851951633
0.0153535826333944
0.0150314500144717
0.0150685530499963
0.0150490517842717
0.0150132796093801
0.0150111137436512
0.015324583028657
0.0157351453588307
0.0150449009012117
0.0150920090231093
0.0150561205723272
0.015341203340939
0.0157499525529741
0.0158004576953657
0.0153758461680857
0.0153291032468334
0.0158118070687797
0.0150103041593589
0.0157516778170438
0.0153092747816463
0.0150027640905687
0.0150029878873091
0.0150132947272762
0.0150007572321059
0.0149985331259137
0.014998073357195
0.0153027721168486
0.0157509025738939
0.0150006770373726
0.0150757581035848
0.0162854798221247
0.0162868554910962
0.0150717867260004
0.0151160495807081
0.0169421920723612
0.0169512061120091
0.015118719476987
0.0152570887716904
0.0173879878006425
0.017721076942812
0.0171052313243117
0.0178912157835645
0.0188732847387136
0.0183098459804413
0.0153536520195688
0.0153030163132126
0.0179966007146699
0.0171592111869266
0.0152291559726672
0.0153346205153153
0.0172187174529208
0.0164794372348729
0.0151769320930828
0.015052443033176
0.0150163643221238
0.0153484057933691
0.0158681895492875
0.0158296424937808
0.015300863197493
0.0150080531369493
0.0150285236811857
0.0150161659567057
0.0150051483679541
0.0150106215732521
0.0150288315292414
0.0150320596223534
0.0150755626524237
0.0150740564912556
0.0151496099830411
0.016418691004696
0.0164364999753289
0.0150885514225075
0.0150133172801186
0.0150029102089845
0.0152981225956135
0.0158259489167221
0.0159353880721491
0.0153536403003396
0.0150018570871942
0.0150105517777361
0.0150023439867151
0.015001702733087
0.0150002012934006
0.015001682960211
0.0150056206823588
0.0150010580863394
0.0149989928241822
0.0149990691251006
0.0149995958134354
0.0149992862104974
0.014999032308574
0.0150012836448112
0.0150010910994078
0.0157505478505085
0.0153026016370717
0.014998656613855
0.0150033819082276
0.0153088191041982
0.0157507503854759
0.0150109382486545
0.0150707160078552
0.0162848838886112
0.0162846428435809
0.0150740093607256
0.0151145692106426
0.0169491021427356
0.0169507418694755
0.0151214018416667
0.0151609661791677
0.0177427041952435
0.0177086238468769
0.015160955300869
0.0151559620736204
0.0176894543074471
0.0185155156245556
0.0154778238830496
0.015773322867345
0.019327135357627
0.0201357574833082
0.0187404972040333
0.0197544499927484
0.0212819389400721
0.0206036918096006
0.0166403997651782
0.0160702763286558
0.0201731955502446
0.0189447516946433
0.0155807308248707
0.0154594823994449
0.0192317012789175
0.0181480308108811
0.0153564292572021
0.0153190846024268
0.0180739340679292
0.0171542765109538
0.0152749472533986
0.0151438017346859
0.0171857343392501
0.0174783208481754
0.0153348773418516
0.0151510205342239
0.0166207397682224
0.0166981205538873
0.0151203418704903
0.0150080619507521
0.0150015649635438
0.0153820114793546
0.0159814353360049
0.0159210452434345
0.0153476059803169
0.0149991336839001
0.0150044506005911
0.0149999911544105
0.0149998027584823
0.0149990192144024
0.0149973534896772
0.0149981361887031
0.0149992988752603
0.0150004420205231
0.0150013910365844
0.015006022416345
0.0150015106102009
0.0150035941964234
0.0150140253766652
0.0150497362629789
0.0150141271536786
0.0150119423100612
0.0153238174753579
0.0157333456678893
0.0150455767296158
0.015088243380473
0.0162948718192202
0.0169447237516716
0.0151167650292164
0.0151124793979079
0.0169381685104587
0.0177001616899412
0.0151561185078373
0.0151529534510702
0.017739164508897
0.0186637962280506
0.0153745886487656
0.0153852837480358
0.0186716594372341
0.0185900422468923
0.0154163198984046
0.0160095235634269
0.0197382771264717
0.0195753866431437
0.0160847689418568
0.0162791272249422
0.0199770460322555
0.0209296096452779
0.0172501344683271
0.0174642047220555
0.0213908375687216
0.0215300165765239
0.0172732980915687
0.0165755510916465
0.0205513320915168
0.0214114972272069
0.0167620259787228
0.0173597844398365
0.0228682659113832
0.0248020060135818
0.0179857464103019
0.018608012495127
0.0246889304772814
0.0251688034690939
0.0290171646975499
0.0266328924780234
0.0192640597553477
0.0190595267376535
0.0264465381373618
0.0258198408344536
0.0188989535425208
0.0186104776719234
0.0233789786308288
0.0263198893528473
0.0251224019739472
0.0234564184510169
0.017816458307729
0.0218783162360987
0.0241517895932729
0.0228177442745731
0.0208574409734891
0.0173613401601666
0.0224802699761526
0.0223282943367614
0.0170298711863511
0.0162415156126538
0.0220604243062172
0.0205338595959296
0.0157261799363979
0.0154751023952163
0.020412085769116
0.0191503128017638
0.0153652634960427
0.01521620612082
0.0191479066145175
0.018089639680999
0.0151790909845043
0.0154001230640121
0.0185889711955038
0.0186843087205628
0.0154149010846453
0.0153323197966674
0.0175659478087347
0.0173564396074451
0.0151140813649736
0.0150459161725081
0.0165890937958043
0.0165844091827633
0.0150512513214804
0.0150065872543036
0.0159179876212907
0.0153470335862303
0.0150000943792798
0.0150001575235848
0.0150015699738978
0.0150065623875129
0.0150010100707045
0.015002238448356
0.0150047769558802
0.0159757601459414
0.0153804536182869
0.0153517583416891
0.0150004194149086
0.0150096513114154
0.015930662860301
0.016611538024832
0.0151527113712007
0.0150890445071957
0.0164278974256348
0.0164136155341935
0.0151510040025138
0.0150280516749996
0.0150086070994161
0.0152998121105964
0.0158276027597691
0.0158213280399002
0.0152968923343652
0.0150033699867375
0.0150136362169704
0.015864126604013
0.0150517623658554
0.0150157874578184
0.0153471397964615
0.0153527039816637
0.0150309246298496
0.0150675199298686
0.0157898276028248
0.0164049930744565
0.0151417074866345
0.0152427097601261
0.0164323688290149
0.01663189105819
0.0164490095916514
0.015754362375292
0.0153310145034147
0.0150325458952097
0.0150695410702928
0.0157621255556885
0.0153310696171474
0.0153751731108387
0.0157680017872272
0.0172587860518025
0.0176110759711604
0.017129387018612
0.0153430306550131
0.0152482987308206
0.017128718593358
0.0179579900731291
0.0153269023406043
0.0154393897121412
0.017909320140684
0.018746394672369
0.0181667061490324
0.0192067911596611
0.0199514250684377
0.0187478830491803
0.0159052076881268
0.0154942667355083
0.0184965178977932
0.018573156699012
0.015406451768088
0.0159948130312254
0.0196867435756124
0.0198426138010271
0.0159388536123486
0.0159495900581134
0.0198637941423618
0.0217735364400802
0.0168017742992523
0.0174223624530917
0.023250370116694
0.0255984649373137
0.0178680921063376
0.0177950836106528
0.0249949130970907
0.0277449998211206
0.0192015295564016
0.0193824485003108
0.0272003721857934
0.0265268345766603
0.0195650882512496
0.0193424261187576
0.0284010264705986
0.0325052386885559
0.0274062880060724
0.029749186160527
0.035777583957056
0.030355157747795
0.0198056264802298
0.0193351836911231
0.0298748295992478
0.0279418916636226
0.0192184120209286
0.0190448593931304
0.0267174133756015
0.0253637547345566
0.0185727073960479
0.018021241935235
0.0236291301949078
0.0232633956325811
0.0173841125763484
0.0172256491869976
0.0244849452950539
0.0239530564990603
0.0168207175736679
0.0158352699745554
0.0219187724959356
0.0218219349742466
0.0155142921249449
0.015282157040627
0.0203790154220409
0.0215500884329879
0.0155260767379525
0.0154627218581486
0.0199338670973732
0.0200328474693043
0.0154888455245176
0.0152220958538151
0.0193160350874865
0.0182610224433067
0.0151697805013516
0.0151752810122748
0.0182537681450358
0.0173510510583112
0.0151195096821066
0.0153352816897244
0.0175537188714383
0.016688842449603
0.0151252793561451
0.0150475501422554
0.0150072242507665
0.0150113891978853
0.0150051967318454
0.0150040790912644
0.0150039370071688
0.0150020933580478
0.0150443758397928
0.0150230555538294
0.0150544992761692
0.0153358197650441
0.0174643462584278
0.0171728949920967
0.0151411115665341
0.0152759633460021
0.0171447695784811
0.0172068337208156
0.0153372614621486
0.0153622063096631
0.018129243941381
0.0192001029269117
0.0154766040285575
0.0156204712662909
0.0189000996905848
0.0201119839262441
0.0161504017329516
0.0167160216307148
0.0197597942971954
0.0210513060637416
0.0204362182794934
0.0222383406993406
0.0225475764565041
0.0208758939433768
0.0174712742015016
0.0173139455176934
0.0208576305644716
0.0199129001596618
0.0162678376049043
0.0165699578004943
0.0204830335348779
0.0213622400356971
0.0173856436269692
0.0175366761221238
0.0212831086326072
0.0218425155887366
0.0178843947490924
0.0233641843216175
0.0238260436270724
0.025961637163642
0.0233868862182271
0.0188735978043827
0.024982505151038
0.0259600803577297
0.0193759676026753
0.0197052663301146
0.0266003099529736
0.0262508532860039
0.0277918067813322
0.0250351776302486
0.0199078490658059
0.0191453431176879
0.0244450207071874
0.0246513206416594
0.0184989012579035
0.0180747197442268
0.0248510696852732
0.0255004249629164
0.0179941628228881
0.0178872219235931
0.0256343029753777
0.02571258339742
0.0178795294411603
0.0194848644600225
0.028797260408327
0.0285716711324807
0.0194427113771947
0.0207606982242926
0.0306558333359536
0.0297620166264373
0.0204687432981122
0.0203390301083275
0.0296188605746041
0.0288375686181321
0.0203686284338792
0.0199481649532896
0.0284545086551613
0.0294752862252161
0.0204635394311753
0.0211951039443361
0.0333767520337435
0.0325851129959557
0.0397634898250637
0.0323807615915127
0.0201646674512139
0.0194863424439889
0.031890574614799
0.0312188283359099
0.0192938010156772
0.0189952147373659
0.0294605976648681
0.0273260600087002
0.0188779279276576
0.0179840105175732
0.0261949942428052
0.0248833130879584
0.0176793492961338
0.0168145655799702
0.0160754051159809
0.0154545512273427
0.0155063653383887
0.0157025500217119
0.0164471597454338
0.0240438449251415
0.025618493038824
0.0165368766890546
0.016486756004914
0.025293923346287
0.0248925717968066
0.0166458588845834
0.0166027073487519
0.0246070639222909
0.0252966688136806
0.0175138308136979
0.0174567055304433
0.0255175340961919
0.0259256104218552
0.0174757982221946
0.0180518629830791
0.026480512239768
0.0260117662302789
0.0181220162980389
0.0173172625730302
0.0246177727021056
0.0167208939578694
0.0185779828428933
0.0276981392173397
0.0295082250928708
0.0195213357203005
0.0190338504036701
0.0285417742745286
0.0273943669550258
0.0177885833095705
0.0167503284850556
0.0282873756223699
0.0307795541854937
0.0163268804577513
0.0162197320445617
0.0281168139081571
0.0256235528668912
0.0160800104666194
0.0156150907802918
0.023464819590939
0.023557822292857
0.0156432222811119
0.0155555386026984
0.02164811573021
0.0205352036613841
0.0152732055133956
0.0152784657028085
0.0205195986173634
0.0193056347853768
0.0152277470704216
0.0154878205661311
0.0199975275066194
0.0186644789717217
0.015416865531495
0.0153956861509207
0.0185668856584441
0.0180698094620258
0.0151683150003242
0.0153179728016238
0.0180564558725162
0.0191197163167452
0.0153593197041226
0.0154570112455937
0.020361654707993
0.0204823830024258
0.0158014955759105
0.0163480896635299
0.0220342870256187
0.0222552003122159
0.0171528422720143
0.0181996737909379
0.0236994039091199
0.0251535861611319
0.019097683895214
0.0196243276046771
0.0275205096801097
0.0282753626193395
0.0199960529219489
0.0198438488949536
0.0271623397023996
0.0282943508060987
0.0208002440234028
0.0208306075306394
0.0289294057359864
0.0291534985551785
0.0202658364660661
0.0207800191877983
0.0308082290183756
0.0320601837627049
0.0371263811203808
0.0323586901922927
0.0225348978249841
0.0228269970272935
0.0320679347433904
0.030744491537043
0.0223626247332119
0.0213940709523222
0.029186115580003
0.0332555520763752
0.0296504787073798
0.0282649107292045
0.0308630389204306
0.0274102638137046
0.021304034097608
0.0208221926445907
0.0272706225318918
0.0273264353544308
0.0200891347005582
0.0195524747371254
0.0277481708933754
0.0285465070238587
0.0195766941905054
0.0194987080657249
0.0287407354844213
0.0309650130676825
0.0209330455453478
0.0209619965220174
0.0310378884793415
0.0309645424329488
0.0208572540163529
0.020855070043864
0.0307303176300605
0.0339659066976557
0.022833472283764
0.022693997547449
0.0338457332496336
0.0328953361681711
0.0223012404768578
0.0220335195258377
0.0325181991395584
0.0313467266875621
0.0214771186197303
0.0205905753539176
0.0304854109227863
0.0325568441616481
0.021174573022973
0.0214194935811675
0.0352183128779701
0.0380348402385562
0.0216602466452643
0.0215243828752976
0.0383286198154895
0.0356886363216327
0.0438689800425934
0.0344402678388069
0.0204835898255518
0.0196441776804219
0.0340499806812518
0.0338506197656978
0.0194459025571985
0.0190918878061824
0.0317739006758338
0.0301326240865289
0.018491843059717
0.0182069317847708
0.0281047402696254
0.0171911892137005
0.0164979934253152
0.0162089981078169
0.0162998774284561
0.0157435947418112
0.0156687820982176
0.0156028151088375
0.0155606217863815
0.0153306311391745
0.0152787565833431
0.0155795884136052
0.025089654935083
0.0234639851633944
0.015439292444021
0.0153374991142158
0.0219274145337633
0.0219030707978868
0.0153350758349101
0.0156238691081046
0.023445924686279
0.0215816633921564
0.0155561114245016
0.0154936092746529
0.0214793762501199
0.020331570014014
0.0152521199345353
0.0155951798260157
0.0217356283560333
0.0218274285517544
0.0159746346093201
0.0170583840068441
0.0240196111149581
0.0245795574782422
0.0176643973220525
0.0174956936039464
0.0232195769901346
0.0250053258977831
0.0179216827897864
0.018767206782234
0.0257187699394436
0.02838860026389
0.0189356771728926
0.020088156187155
0.0311461827420722
0.0320966767274998
0.0206815381000753
0.0228926582065619
0.0349040020313135
0.039995305782129
0.0334741608745793
0.0353285199427513
0.0444293623775407
0.0387620978282255
0.0232287988512881
0.0240056045940546
0.0387732767475972
0.0359850534899306
0.0247583532699983
0.0245317698510239
0.0357360466399053
0.0371853409184855
0.0247768825953434
0.0255304190450486
0.0378641807165414
0.0380493965078573
0.0252068478281612
0.0254499822912311
0.0384531786227934
0.0400761617738165
0.0257830642638366
0.0257907735718294
0.0403099199990836
0.0409335789549347
0.0258384501305121
0.0258232802524207
0.0408640914612806
0.0406234070711236
0.0258209862504927
0.025659555559205
0.0402713188810438
0.0395154759379736
0.0254671394190327
0.0251891054447671
0.0391902950948249
0.0385850930198404
0.024905756210376
0.0237739202410013
0.0375418394220801
0.034720633428061
0.0223597831748715
0.0227073232567369
0.0390267553029803
0.0439814669796348
0.0230633588551344
0.0234920517426451
0.050631845334674
0.0411922086740233
0.0218400324115341
0.022118826060857
0.0451561407300499
0.0443657604119032
0.0218399180193225
0.0207979977033109
0.0367265017039736
0.0487821635044487
0.0393413050564901
0.0431166230457275
0.053788853618641
0.0395157953271601
0.0211037226023465
0.0200990377235908
0.0390732530430284
0.0364304036187744
0.0197924134081384
0.0196486895859958
0.036748913328889
0.0343384600388565
0.019215749175504
0.018624707129792
0.0324404062180193
0.0317554865646713
0.0192401263630177
0.0190258472752301
0.029491869394165
0.017175256517427
0.0174010467106116
0.0168660056325818
0.015777297991976
0.0158367238145958
0.0156464150696163
0.0160433808854717
0.0309698918182825
0.0282546783872295
0.015890982152756
0.0157691163075539
0.025785838986602
0.0153870659806174
0.0151976404235519
0.0151919449170038
0.0154380724605276
0.0233957245436768
0.0255820806421667
0.0157144560705503
0.0156972852518153
0.0255071502235198
0.0234123683121018
0.0159671219393593
0.0164559162635604
0.0259273530083631
0.0251552829732615
0.017271162709223
0.0178680971891858
0.0256114225397666
0.0261988207854709
0.0185439246420806
0.0181114435930739
0.0262497066534436
0.0269923295068989
0.0182037748824372
0.0184364407300633
0.0291533408762247
0.0310286265627002
0.0191844234975167
0.0204274509938452
0.0348787396007952
0.0332484812951472
0.0208238766849016
0.0209602499740619
0.0354520393602782
0.0375524803360194
0.0484506049031271
0.0426665775120279
0.0235216030009475
0.0243904474032427
0.0436380346223564
0.0412218751851837
0.0259724549257258
0.0266326756814742
0.0417059294349744
0.044984748702155
0.0267287729970204
0.0267405467295586
0.0462873658062575
0.0466995681341
0.026871580418728
0.0273789408387696
0.04874652269164
0.0493062917647154
0.0271611766194632
0.0274760098572305
0.0506421430829643
0.0511936137457625
0.0276181494561796
0.0280106733683032
0.0527534445555168
0.0545402980233938
0.0281920228277841
0.0282392535105806
0.0552532524179719
0.0553571414679217
0.0280882275844264
0.0283720650417951
0.0559010216625648
0.0570371830849475
0.0283720151059995
0.0282833728547369
0.0570827561213657
0.0570170759821772
0.028341870764224
0.0283479902045383
0.0567023119597241
0.0562783477371666
0.0284711178828183
0.0281870001727782
0.0554824535118693
0.0553120037821886
0.0282074792242132
0.0280631828458104
0.0542379344143415
0.0532818021654467
0.028008693962153
0.0276477833287426
0.0518304989256513
0.0512979420408289
0.0274717856288183
0.0271006782259827
0.0499682498126849
0.0491099337714438
0.026905146989933
0.0262895400713176
0.0473293846069534
0.0471916753981102
0.0260932904814341
0.0259770894085645
0.0417889686605293
0.0432815744691072
0.0265935784524856
0.0267555128418334
0.04364452019633
0.0442596215977557
0.0271015650353204
0.0271931818360035
0.0442703488080979
0.0450864245496235
0.0275587067022292
0.0275814198124629
0.0455806684716428
0.0462486758951282
0.0277751901530164
0.0277192323379561
0.0462772979566151
0.0467546159996418
0.0279567396858009
0.0278542185793148
0.0469098757399984
0.0471631707174402
0.0278710901390274
0.0278384584236597
0.0471536295372421
0.0470926281010608
0.0278768487078303
0.0278425201854955
0.0463602755939629
0.0460504154210868
0.0276514765893851
0.0278112804238994
0.04603711507604
0.0455253576889119
0.0277068901221826
0.0274932214158979
0.0440535542437554
0.0431861952497696
0.027122161637033
0.0270597000165852
0.0430091459401597
0.0423877449345504
0.0267626265368124
0.0270880158170025
0.0422943229315449
0.0409179614500452
0.0265849821421701
0.026827051065715
0.0228664960575092
0.0204835625380751
0.0179139410647796
0.017370787554137
0.0166261692406779
0.0164762641950142
0.0159052180123757
0.015788252850404
0.015754751360927
0.0154965231864189
0.0154185093768791
0.0158621637471817
0.0279425275003925
0.0281004259365579
0.0159499767670154
0.0161467620422766
0.030956448142365
0.0286631697160374
0.0167893728791682
0.0173486043089278
0.0284468003426244
0.0268331703264262
0.0171998408216413
0.0182357188782788
0.0278492090732388
0.028553222341787
0.0189507902833427
0.0184207621679622
0.0283358847025938
0.0305929468343948
0.018609485702171
0.018683391608147
0.0313468604927135
0.0338760474861709
0.0195250020702808
0.0210711508019692
0.0392672482461367
0.0374821798815149
0.0214946493752003
0.0246659888111672
0.0403046816517406
0.0534831832707258
0.0468954807172404
0.0496480656223368
0.0248366035040279
0.0264242411586111
0.048163050835332
0.0523005714376141
0.0271221853353571
0.0281850427886482
0.0556892695486843
0.0583929444488273
0.0282787059230555
0.028264009047109
0.0620118247796146
0.0630325475276425
0.0275923219431874
0.0282406331750477
0.0656845153195569
0.066786113972668
0.0283255360722726
0.0288077004607543
0.069264665376183
0.0707548277781608
0.0292621507323773
0.0297815865936134
0.0729139892280883
0.0744339347466788
0.0300763993380801
0.0302766301423875
0.074792250697458
0.0750409594254422
0.0303529964431564
0.0308214156374645
0.0760630629333801
0.077910666698649
0.0307880113412693
0.0307028307960347
0.0777620092670913
0.0775152476718225
0.0307989771291136
0.0307036842973793
0.0772599208882536
0.0765424531134765
0.0307687781209445
0.0303591098867771
0.0755594518726133
0.0754274224003631
0.030095603376484
0.0297832379461585
0.0746069410064608
0.0733287424806197
0.0295165593165595
0.0290737827124174
0.0711271370657303
0.069007763539667
0.0286254606286481
0.0280798101542104
0.0665009592615285
0.0658181633871532
0.0277168377535328
0.0270057790045008
0.0645383696542424
0.0568809059917976
0.02594564011701
0.0256921820587791
0.0509727147411783
0.0454913953434181
0.0242387442036092
0.0247451969671982
0.054895381905126
0.0675632412007032
0.0252609899004259
0.0258283858963581
0.0867967336577214
0.0592030803424367
0.0239145677319253
0.0243374387202342
0.0713500312507905
0.0490494345700551
0.0222674903282699
0.0225049745692608
0.0548490007232573
0.0521050014436134
0.0220987388994566
0.0223422473339648
0.0617875141104622
0.0483965167029588
0.0598739578463354
0.0429829211075749
0.0233092896689424
0.021868294700855
0.0419949483654172
0.0433373615826696
0.0215363465323945
0.0203274331505395
0.0412116314134071
0.037304930528536
0.0193461062275453
0.0187378402723055
0.035042341890663
0.0342979829261895
0.019316590120161
0.0197842601638319
0.0350902360338182
0.0321353183044768
0.019758011095979
0.0191690802147639
0.0310840771792658
0.0289888816733589
0.0176047487143625
0.017659977126265
0.0306992282179536
0.031461786002174
0.0172930262791025
0.0174453457641956
0.0342377301458661
0.0342410991684317
0.0162298841245771
0.0158439429918369
0.0289010812400153
0.0268217989273211
0.0157262432892436
0.0157269355717095
0.0266773689317063
0.0249730404072665
0.015578286960889
0.0152760671041271
0.0153773369007315
0.0155503340793971
0.0160449692349943
0.0305894615420519
0.0338459003539372
0.0163104801536088
0.0175233088095735
0.034272395136895
0.0317818864899773
0.0174971811492214
0.0174372919463048
0.0315690811719076
0.0298413983342768
0.017322915258541
0.0185186043461684
0.0329236951553309
0.0303369019903823
0.018389773364793
0.0191055112230294
0.0312268658347375
0.0341814382095788
0.0192162894965988
0.0187783355748562
0.0330328892589112
0.0337793364814115
0.018902941375069
0.0198507908007428
0.0371119035011422
0.0442182909499231
0.0214190747104623
0.0217954588189363
0.042433116084576
0.0475203496557485
0.0675386018127389
0.0574451291179289
0.0254107231343135
0.0256053062107697
0.0661049268277
0.0699321471898165
0.0273260587288716
0.0280509077068851
0.0887244721221181
0.0968903986219217
0.0289197422443755
0.0324311543309143
0.135634227559874
0.136501176968502
0.0326258964461891
0.0339635900717956
0.142841406192814
0.156397122516778
0.0381203360458581
0.0445030251673343
0.156136838986526
0.179452246815981
0.0495346733661496
0.0505933235831982
0.187685553510306
0.191888545832117
0.0503144866339479
0.04946340856851
0.192391641989829
0.193190124119013
0.0495971414161038
0.0492232212388576
0.191598485909515
0.190694903510975
0.049702178645902
0.049296698088665
0.188055698232879
0.187525979124759
0.0497459370063918
0.0494191045365383
0.184850891092483
0.185387871310727
0.0499075495061905
0.0496382816516953
0.183999952581005
0.18599105303814
0.0502455715560678
0.0503167102327218
0.186232132801446
0.188965256565384
0.0508977500601676
0.050637724863753
0.193035971094341
0.19444569268754
0.0506682213999807
0.0503951481526068
0.192501800375042
0.191661483921383
0.0505680326882789
0.0508930092635803
0.191477074239391
0.19052174183388
0.0504763426226934
0.0506905358540962
0.192324903081194
0.190693857470214
0.0502784976757676
0.0508390217808239
0.19183084656402
0.190129511803527
0.0503254442871965
0.0504659480443935
0.190813869670263
0.18976117440809
0.0499264293215466
0.0502411261943508
0.192015517398241
0.192312887201409
0.049774744614122
0.050158522927357
0.195645291894415
0.197034035002495
0.0496611433761268
0.0503067139650478
0.199968142783318
0.200278374416735
0.0504466591456079
0.0515076720837501
0.200129020064167
0.195459782763079
0.051733949584912
0.0504575079616971
0.186142118216014
0.160867651062073
0.0452400204270027
0.0393238476407737
0.162128820082821
0.152375038572089
0.0354854563976419
0.0323851979492361
0.149932934179162
0.101701936881982
0.0274148551003288
0.0267478192266382
0.0843046627702968
0.0732687010975691
0.0264247256306222
0.0260119247884432
0.063595667974106
0.0774889894146307
0.0275453966302182
0.0288592805679934
0.0940163683601127
0.1173131672412
0.030065905259809
0.0331180832180793
0.117358259348619
0.121593567011608
0.0371805849359406
0.043846803896007
0.137987706104308
0.147691868882414
0.0495163269183345
0.0506734414901078
0.153262495273236
0.157613416913242
0.0510050662692616
0.0495499146028209
0.159855794417751
0.162184927220653
0.0494708665503184
0.0483690831412599
0.160804591706575
0.161622980627861
0.0490208190506709
0.0483576482543024
0.1591293741534
0.1602812502877
0.0489666616282131
0.0484463014054141
0.158267131959546
0.160028313448155
0.0490942559244328
0.0488239511874437
0.159430896821343
0.16129683861792
0.0494440836081611
0.048790659129744
0.160752392561277
0.162099127906165
0.0492701772148858
0.0490163704340544
0.160700013461702
0.161607785340218
0.0494366252213785
0.0491135121259682
0.161872748169655
0.162174950659013
0.0489787109760034
0.0492453477769361
0.163642032793567
0.162826827144697
0.0491651616610559
0.0494305628884242
0.15921743700216
0.157188948423771
0.0488282334796435
0.0488153882311496
0.156722114154479
0.154820719888646
0.0481548202311686
0.0485614407639432
0.156078212438864
0.154722090653469
0.0479620961085236
0.0484752011411057
0.157060440971678
0.156130573404615
0.047894688863094
0.0485676631524358
0.157936775655484
0.156861769798553
0.0479521289592437
0.0486960920348306
0.15706067480489
0.154148571436124
0.0485215239228567
0.0498120469531378
0.151927416357735
0.147849729346581
0.0495979970476097
0.0485483849164744
0.142901076954273
0.133931578589481
0.0431335350720165
0.0358566039151386
0.11910437509147
0.111073239201316
0.0414283973800519
0.0457700447691788
0.116577353552572
0.119796050088992
0.0466108588269883
0.0474266572603222
0.122874340408426
0.124190539249099
0.0463572974666133
0.0471819727904155
0.127033057383743
0.12700751827973
0.0462124510366896
0.0469540448442992
0.129423672831942
0.12821301050307
0.0459215528358217
0.0466815412557459
0.130119261548684
0.128063923756055
0.0459331834054236
0.0466687790980783
0.129816613246865
0.128762509327725
0.0461054429397062
0.0468068641122545
0.130363185360981
0.131027813673547
0.0467598194776166
0.0473710306555928
0.132324021702812
0.135451745710176
0.0470972724721035
0.0472232798863481
0.135939250957459
0.134858789337805
0.0469652582837337
0.0470491641919352
0.134782144854297
0.134480180436558
0.0473608650923849
0.0469675353224056
0.133816989723527
0.134841930008412
0.0472577383178109
0.0467165751848138
0.133753113249861
0.133863249753329
0.047477500918486
0.0467363435627581
0.132159824162337
0.132629676683353
0.0471629312898022
0.0463855121284424
0.130559127171179
0.132371504313371
0.0471719152429253
0.0463591379113356
0.130252639781318
0.132183352956437
0.0474219483930549
0.0466246441089146
0.12983772217682
0.131138063295248
0.0479664231556308
0.0472707315636518
0.128529326484935
0.127084893933068
0.0484752462683072
0.0475587427110875
0.12381396642034
0.120196714615586
0.0467087289875636
0.0421106419940114
0.114366490396474
0.103586801055445
0.0379640719301211
0.0328067494132006
0.0950471064463416
0.0940361456195942
0.0306251361642349
0.0287923705189735
0.0780454068079297
0.0791314153584064
0.0294068640691416
0.030233719655817
0.0828871991538124
0.0862339609183736
0.0305641500961742
0.0392991794205943
0.108518277815647
0.11212388798296
0.0389813513812374
0.0386544571952518
0.11292594040215
0.113122359878062
0.0385829810717058
0.0386752902102429
0.113219913959926
0.114436254632037
0.038961415324064
0.0388101028169797
0.115547954771979
0.115577307734478
0.0388975644097025
0.0387376422332836
0.116131447854551
0.116730577283799
0.038863846519293
0.0389741696621691
0.113471462919738
0.111705259437825
0.0385250842899248
0.0383981121016443
0.111227857497916
0.11137986471125
0.0383240090481277
0.038458562086945
0.110513617130484
0.108416163614338
0.0385175866933481
0.0387156342461996
0.105129482393698
0.100674958033353
0.0372302017320856
0.0318421006467283
0.093907652248969
0.0896999390345117
0.0292880550374913
0.0316649627408594
0.111322620463519
0.108097109844674
0.0307144233819538
0.0302792564772377
0.106569635453754
0.0805051329491595
0.0284504395037582
0.0275827829025268
0.0665726345733545
0.0696736913536727
0.0282926811661475
0.0292353570711063
0.0852777841029888
0.0879483854144742
0.0291740541869523
0.0285245519416454
0.0728444889737056
0.0742993392500374
0.028153110240203
0.029005914846061
0.0782986052855311
0.080437292136435
0.0298098263883989
0.0302643127413234
0.0837366915722869
0.0855455534885774
0.0305093007955771
0.0312684471854619
0.0865498469297859
0.0868136160702042
0.0318070446064309
0.0321854645830849
0.0864661799213659
0.0864642693847869
0.0324434399406283
0.0329921378610626
0.0876340225963523
0.0896615917139072
0.032987567551142
0.032906081607009
0.0894124992960881
0.0890862888689284
0.0330084789501584
0.032867155903281
0.0888456975195738
0.0883306308754896
0.0328341521384818
0.0323325127091198
0.0876414100070404
0.0881384855681803
0.0318397665800066
0.0312621024087454
0.0884644588526485
0.0885744414028323
0.0306950503934529
0.0300856733471198
0.026823620888642
0.0263766115928542
0.0258544324568595
0.0252410074514683
0.0233822780128629
0.0232153263573759
0.0228745313049729
0.0225606084402267
0.0201163096806738
0.020066376532893