/*--------------------------------*- C++ -*----------------------------------*\
| =========                 |                                                 |
| \\      /  F ield         | OpenFOAM: The Open Source CFD Toolbox           |
|  \\    /   O peration     | Version:  2312                                  |
|   \\  /    A nd           | Website:  www.openfoam.com                      |
|    \\/     M anipulation  |                                                 |
\*---------------------------------------------------------------------------*/
FoamFile
{
    version     2.0;
    format      ascii;
    arch        "LSB;label=32;scalar=64";
    class       volScalarField;
    location    "700";
    object      nut;
}
// * * * * * * * * * * * * * * * * * * * * * * * * * * * * * * * * * * * * * //

dimensions      [0 2 -1 0 0 0 0];

internalField   nonuniform List<scalar> 
162506
(
0.00149790855794054
0.00155230166807353
0.000102987429537894
7.88007360206637e-05
3.92611433458901e-05
9.52642457182193e-05
0.000460214806042335
0.000530890103599169
9.3198551755584e-05
6.34526335338356e-05
6.9589615579545e-05
0.0008859163211726
0.000936986271864264
0.00130188252789965
0.00293172714467896
0.00332122426519394
8.9529009784775e-05
9.28913597902178e-05
0.00132951624429044
0.000677637235246338
0.000910835983641248
7.98739255975871e-05
8.51390903965922e-05
3.87257398176833e-05
4.36014785802254e-05
6.12590785908964e-05
5.6798571591833e-05
0.00570462676529825
0.000106154725773006
9.82012997278753e-05
0.00813413389011644
0.00772235148055142
0.00496192629735268
0.0104500454488559
0.0150001158059849
0.0149413143641387
0.000100603925696953
0.000109813348340015
0.0106577362132556
0.00846594015777378
0.000113129802211916
0.000110713515205172
0.00510597096871957
0.00458259849057241
0.000110747590340219
0.000110631200082167
0.00324943934439832
0.000815509979620622
8.70920885328321e-05
4.53257689970779e-05
8.51773392767689e-05
9.13396747963074e-05
5.00794324043157e-05
9.64912330915012e-05
0.00116114386035373
0.00128201638949189
0.000101217685972614
9.79041391463568e-05
0.00086365936704202
0.00214228242151595
8.25009907125582e-05
8.17068872596457e-05
0.000955047166521329
0.000819819430258533
0.00228430571562503
8.06792316895642e-05
9.25365780457829e-05
0.000109623650973445
9.78211495809346e-05
0.00434984977048795
0.00283517457775621
0.00418232874944703
0.00593889738832946
0.00352950874057409
0.00247430007476841
0.00192483986724427
0.00167940944878935
0.00334058806621547
0.00298446611654061
0.000102682857985087
0.000113684868852348
0.00530368134762946
0.00507076681199557
0.00827137045978472
0.000102931590422609
0.000112842902311337
9.99221661394509e-05
9.02208490040656e-05
0.0101061076718991
0.0056623313215232
0.0131083558318377
0.00962143573686402
0.0145327300395503
0.0125352316082724
0.00871265989503367
0.0116651593643248
0.015000310454769
0.0150014779619451
0.0150016935443932
0.01500044022623
0.0150003374804459
0.010386259609476
0.0109434310692708
0.000109774112910553
0.000100687876674966
0.0149430629497321
0.00731944076601083
9.82866335241465e-05
0.000107008790492278
0.00569910750104888
0.00570663524066999
0.000110705292162555
0.000113663993000003
0.00931353063282609
0.00803724298156381
0.000111182903926188
0.000110077123256648
0.00788228080619669
0.00485698111235643
0.000110957462886716
0.000110720365055656
0.00380613851981863
0.00334366034287295
0.000115616881573481
0.000112466605964699
0.00230421175990804
0.00112590173543923
9.70021311570048e-05
5.4172838557505e-05
9.42759390218385e-05
8.76793284054523e-05
4.83553027932588e-05
7.64250422476452e-05
0.000744259990359223
0.000702775287614973
0.000112256875694519
9.67085723600914e-05
0.00131421547362099
0.0021951920548701
9.34316956020521e-05
8.75989684105413e-05
0.00271973736515885
0.00373695488165231
0.000107806160605094
0.000106072891158073
0.00351639484456078
0.00824549294391635
0.000106406051739311
9.81118912106578e-05
0.00480105567163225
0.0069203407770525
0.00010486082221716
0.000102389132315791
0.00802706046945155
0.00709572243352428
0.0110152180929833
8.65933805362886e-05
9.6009307459983e-05
0.000105912781573241
9.42710970976337e-05
0.0149278962653551
0.00818245446432038
0.0150011147065437
0.0150007002310125
0.0150003448472477
0.0150008107033334
0.0150010926172586
0.015000468854279
0.0134271319893245
0.0142011016140345
0.00869047766564517
0.0104571648162819
0.00703910118275015
0.00489608996388848
0.00126316095212628
0.00278946471633546
0.0031293031528413
9.01385729444127e-05
9.6296488909138e-05
0.00143540483074948
0.00168869013668713
0.000103017231584247
0.000110804522299852
0.00318630812038823
0.0053209774559688
0.000110969545231496
0.000111897410394611
0.00415812406264484
0.00515717073833689
0.000110580854439965
0.000108170076886371
0.00276217296144948
0.00275068448272854
0.000105270263996128
0.000108594739210946
0.00251910858230172
0.00135823448778099
8.9832348821261e-05
9.46435210772751e-05
0.00138333558677581
0.000725955688164747
8.71452597890015e-05
8.64046506749727e-05
0.000720561077776177
0.000611307803953996
8.03578634120309e-05
7.61460806681415e-05
0.000697508469626159
0.000640538632686654
7.77315122455915e-05
7.31242496041423e-05
0.000815461791180131
0.000588116476656534
5.39914108554715e-05
5.21291811023793e-05
0.000510172755128179
0.000618312318123932
6.46508282462877e-05
5.75204742867976e-05
3.32098946252671e-05
6.77579649308729e-05
0.000603907117409103
0.000540344838427396
7.23283013268072e-05
7.24079645563863e-05
0.000492184291302187
0.0004808934918454
6.02972952873666e-05
3.5892118152995e-05
6.82109338116737e-05
7.44023801824583e-05
0.000384028085231338
7.05444946310151e-05
3.37077356392006e-05
3.50660555100317e-05
7.4391163189394e-05
0.000503971623597535
8.75692887285487e-05
8.4619478533715e-05
0.000561192924401055
0.000969045456762547
8.65215461987616e-05
8.63006686603744e-05
0.00153067881163417
0.00208116682908239
0.000110614699214375
0.000109306544844474
0.00293893870408293
0.00432625987813027
0.000111645250857068
0.00010722664503798
0.00702873689662376
0.00436781182157633
9.51576055963314e-05
9.5566957965597e-05
0.00442217141758055
0.00496043450080257
9.77714552548946e-05
0.000115482640242671
0.00894251651509297
0.0113981271969623
0.000114554741512975
0.000113471117222656
0.0112423467887776
0.00701956990313175
0.000106435044303716
9.44093990952193e-05
0.0149281214588764
0.0147865078183657
0.0132771878857148
0.0058775293598766
0.0116694098793762
0.00941392277236412
0.0122216214247934
9.55657550818359e-05
8.70039231125072e-05
9.01436707466411e-05
0.0146888531251477
0.00536381983059508
9.95849492075045e-05
0.000103669205269759
0.0067129005996242
0.00564405365044585
0.000113321795524235
0.000102798486938455
0.00279464603322382
0.00295200371158391
0.00412981124122061
9.71561895400454e-05
0.000110734714147121
0.000113005020418714
0.000102844440560887
0.0076604772297033
0.00509345617183116
9.10191191209038e-05
0.000831317611111924
0.0023509168526142
8.14040638908579e-05
7.01137581020406e-05
0.000880446820986337
0.00101905934455848
6.37793422877701e-05
9.47446665378485e-05
0.000531941345381211
0.00045504634300907
7.79975610555368e-05
4.00560485097786e-05
9.8757241759956e-05
5.99528008569595e-05
6.40393476932586e-05
0.000927472292089189
0.000680674466589625
8.46163967840426e-05
8.28994079434058e-05
4.37521267061426e-05
3.95214957501301e-05
8.37548625078893e-05
4.57509663695764e-05
8.63678670493418e-05
0.00077769490120635
0.000875632382621201
9.75009744020064e-05
0.000103776478493115
0.00128200304106513
0.00117340039786966
9.25376265531593e-05
5.03681277298943e-05
9.53899626239874e-05
9.68413343280554e-05
5.38086821305655e-05
9.33018681064335e-05
0.00115150583807054
0.00236272971815856
0.000113798465715442
0.000106890087251559
0.00267092592495648
0.0013542875921276
9.44122513258085e-05
9.521552563228e-05
0.00128831054171567
0.00135054545473193
9.68184352270567e-05
6.47645514514228e-05
0.000713223579653192
0.000422719480259197
5.19399721411574e-05
4.29920538703252e-05
0.000289027755553757
0.000373971546147022
4.7581899753359e-05
4.216672043062e-05
0.000287963269208781
0.00038567255950078
4.75413647446033e-05
5.37123885440278e-05
0.000513959671443712
0.000622922351134533
6.21365432462189e-05
3.35206909309148e-05
5.2291662300853e-05
5.30142108935105e-05
3.8300377774275e-05
6.54457432030072e-05
0.000391877974198584
0.000488534338615098
6.66007258685426e-05
6.29102796883734e-05
0.00086468821998937
0.000419058376740664
5.64732760532476e-05
5.08490123712525e-05
0.000383960292363178
0.000313610213554525
5.87185397167748e-05
7.29487742716396e-05
0.00042819464944388
0.000826521517453507
8.04516363608165e-05
0.000110107737093234
0.000836617014864912
0.00131649285833508
8.93589740844637e-05
9.55040961581063e-05
0.00156180989275977
0.00262349773034675
0.000113734997698261
9.82824705246228e-05
0.00289832726755106
0.00413466373757492
9.60100403285716e-05
9.65826338856395e-05
0.00413526447527032
0.00489884307167015
0.00011513245835726
0.000114695296801545
0.00793503779768966
0.00792055810892804
0.000115011857762125
0.000114998122419038
0.00894415115232343
0.00493981131425611
9.64755193100054e-05
0.000100261052713441
0.00754361203798158
0.00319971786924452
0.00774619678376395
0.00777235880897924
0.0147374038412446
0.011955870318047
0.0105078161815108
0.00879986050485301
0.0115706063069915
0.0134231096330969
0.0110915460440729
0.00476621382806262
9.85266731722557e-05
0.00010524993389281
0.00819973142819084
0.00341717651388359
0.000105877463962775
8.30659396287912e-05
0.00205765934153111
0.00290561189848544
8.6978225607601e-05
9.27770181156033e-05
0.00256164192216952
0.00136872713071321
9.76292109451656e-05
0.000109871542114406
0.000730004751317352
0.000824731410113229
8.52827565335864e-05
4.67740754880509e-05
7.71419642357428e-05
8.44136085191976e-05
3.39685403913937e-05
7.08162590365249e-05
0.000540651821837211
0.000635626761726305
8.54468867741113e-05
8.6108475460067e-05
0.000724646088060547
0.000668606079875594
7.98673072956755e-05
7.57774220185039e-05
0.000586193487956554
0.000545847388938899
7.63911601518877e-05
6.32732606502492e-05
0.000374521205379497
6.7210229581428e-05
3.27116847104494e-05
3.27002009370708e-05
5.57597340146847e-05
0.00038916052359268
6.15301321872107e-05
6.38151502415899e-05
0.000322614594503702
0.000411175933820243
5.45936203155291e-05
5.25696734536813e-05
2.81028777347766e-05
5.04965676490219e-05
0.000424485650282312
0.000489122863906096
5.7261684280088e-05
5.31302071217576e-05
0.000409117379441463
0.000283397741329792
4.34196908436977e-05
4.00526243167518e-05
0.000259971513185068
0.000246008487567073
3.81433030354725e-05
3.92164826633722e-05
0.00025021626947792
0.000184677050087357
3.64211184792331e-05
3.56065322715582e-05
0.000214234591215874
0.000177754359998422
2.96848306167754e-05
3.73501894158828e-05
0.000190581108011699
0.00025963813204634
3.745606664768e-05
4.28533667756926e-05
0.000295397993495418
0.000342746841573512
3.77743909359153e-05
4.47221825332031e-05
0.000325458450824851
0.000277065952036878
4.32998861841423e-05
5.53003383657339e-05
4.28149882053228e-05
7.00637744096671e-05
0.000311977576238341
0.000380612459819354
7.36530657896733e-05
6.74556871800814e-05
0.000448663133041416
0.000507133090449096
6.27856689284774e-05
5.64023084548182e-05
0.000444801854734103
0.000432389855081534
7.55742509984938e-05
7.25295920197986e-05
0.000491304426186091
0.000494345201276258
0.000610943215543428
0.000492833917409167
0.000304294995877692
0.000435805794809121
0.000835377218802155
8.29701948903057e-05
6.56656136922995e-05
0.000577810507026825
0.000364063275438493
4.64317732871984e-05
5.11107658584819e-05
0.000461541978354333
0.000754175448027887
6.36765534659094e-05
6.79968828208477e-05
0.000474074764432546
0.000390480776035555
6.02718876403553e-05
5.44089050621314e-05
0.000333829365197394
0.000336750865790026
5.50316387270995e-05
5.30519239379463e-05
0.000499932359375611
0.000950519006081576
7.45123993184684e-05
0.000477827556584884
0.000714550755683941
7.37937408680772e-05
6.30551093508688e-05
0.000583446678853663
0.000505555383868629
6.06617733143799e-05
8.15260613279595e-05
0.00038059650219388
0.000461509644076964
9.74566180930409e-05
0.000107555167253772
0.000651497284835701
0.000663997147578427
9.36414678933049e-05
9.2271997766045e-05
0.000973732200149492
0.001780957005854
9.22480438876081e-05
9.66591491767555e-05
0.00173034728007404
0.00305001097348193
9.71832992501364e-05
0.000114943919291286
0.0027525584813442
0.0028363366696037
0.00011530386867176
0.000115422980123895
0.00519743486801089
0.00411908314486699
9.69213932712885e-05
9.57614471899413e-05
0.00440126541865017
0.0043511137829575
9.59408154226618e-05
0.000107233843872127
0.00760982347338676
0.00412312192797571
0.000107786333904626
0.000112843107121604
0.00320596904331991
0.00234654406454071
0.000110585076368215
8.33154956012311e-05
0.00187496324803454
0.00089698748886399
9.17499117900945e-05
8.11799973383833e-05
0.000521343482302474
0.000299565378416013
5.48832392126894e-05
5.80969211870375e-05
0.000792100380457614
0.000560335181959368
4.65046054043327e-05
5.68065031025312e-05
0.000797971150019171
0.0005852243605471
5.46479942676783e-05
5.32592614783785e-05
0.000417822653823648
0.000423388086385554
5.47455560691501e-05
5.40142736058058e-05
0.000430723769784553
0.000389028708698484
4.96051737751596e-05
4.82809405324552e-05
2.61095689034158e-05
4.10131038899049e-05
0.000285064906465579
0.000243800797887435
4.25252168341947e-05
4.55162187437466e-05
0.000224915901826065
0.000334850838538405
3.9833831998115e-05
2.46653527225896e-05
4.25858780035836e-05
4.49168312916722e-05
2.66129554354368e-05
4.53859829671905e-05
0.000428954023509467
0.000443375330655519
5.31920518624094e-05
4.36782979008427e-05
0.000306362338585766
0.000217369704853527
3.63252809686037e-05
3.85343787420271e-05
0.000182567878846711
0.000174535533067716
3.72487436762364e-05
3.26561321503092e-05
0.000129737651220067
0.000127919526759926
3.19824607787242e-05
3.07474275805265e-05
0.000153138635722155
0.000147406756046238
3.34288178641436e-05
2.62171583333074e-05
0.000126305194545897
0.000140722073735482
2.41596289667261e-05
2.97958919834883e-05
0.000168805806401128
0.000213617548365631
3.02042303771962e-05
3.56826164864464e-05
0.000242934404068272
0.000263710540045362
4.08058394674997e-05
3.35324084743242e-05
0.000246873870886289
0.000212281316893327
3.78788890538994e-05
3.89885145405111e-05
0.000204315299177977
0.000265526096621906
4.76843468941471e-05
5.93978229825322e-05
4.7683844004041e-05
7.56678843004054e-05
0.000303402205338489
0.000370070117980641
7.98050213176537e-05
7.31491459364056e-05
0.000430568230274253
0.00057545423327687
7.03162622270595e-05
8.11293871228185e-05
0.000556352771833827
0.00043904812670162
8.01543834442187e-05
0.000373516022593016
0.000294620334277875
0.000184200626613463
0.000124815987229048
0.000137439452862242
0.00021177485046425
0.000223316485735111
0.000156911698671274
0.000281623222068562
0.000472941519681041
0.000651934031071781
0.000108932633095353
0.000110079674114084
0.000963010425015085
0.00158515995719566
0.000113295044364985
0.000113809776135305
0.00159286746874787
0.00170038088068703
9.76799986310208e-05
9.76088648384064e-05
0.00316836502718534
0.00304112968066973
9.69306635093334e-05
0.000115201431462326
0.00303860708361734
0.00171342801806271
0.000111090180567565
0.000112598187778151
0.00129370615070579
0.000935988361566464
9.50891321769793e-05
8.26682730815084e-05
0.000963540180752852
0.000411961517452889
7.3589339678971e-05
7.27886825707129e-05
0.00042601710800745
0.00040951036710351
4.15980137176224e-05
4.91309668325563e-05
0.000463978709713873
0.00044469103604764
4.79844473106173e-05
5.22931289438385e-05
0.0003284633741402
0.000287772286263183
3.93083316472242e-05
2.58744955884689e-05
4.45141241835162e-05
4.64296663383263e-05
2.96901114962158e-05
4.12244658779864e-05
0.000233887143030164
0.00020062077309405
3.5351933285274e-05
3.02179255755048e-05
0.000230011674979385
0.00018969211194478
2.84191203421344e-05
2.34396459208837e-05
0.000175285404830148
0.000148537412129607
2.28005939619351e-05
1.74660048459801e-05
0.000125643722045015
0.000111470215714424
2.2246360086907e-05
1.82602706816359e-05
0.000107210042822477
0.000108812485089978
2.2388855139544e-05
2.32830833873395e-05
0.000107687024859417
0.000106151665500699
2.29546051532727e-05
2.24747443288473e-05
0.000106187654869873
0.000107976902099615
1.82094108558859e-05
2.24170537616379e-05
0.000117389825212296
0.000135252059870725
1.78684116059614e-05
2.32403650538428e-05
0.00015505215947777
0.000189075451638348
2.53614781693511e-05
3.09011334306156e-05
0.00021277829205993
0.000181882988914611
3.07923506480913e-05
3.30115076562859e-05
0.000175254002594856
0.000160765205532763
3.89609046319011e-05
4.3002633397823e-05
0.000196469230910834
0.000204823305416968
4.97672408235272e-05
6.12355283299465e-05
0.000292880248799908
0.00034795395011989
8.32110250924757e-05
5.38941929360077e-05
6.97979702342552e-05
8.0848950269325e-05
5.87372093706347e-05
9.37224448095911e-05
0.000446507101695687
0.000548922185898997
9.57966694550509e-05
8.75164695134999e-05
0.000418865949876838
0.000454532193613904
8.08748995926796e-05
7.61891830054735e-05
0.000495617541641332
0.000570139198781646
7.95956045676836e-05
7.68537475446665e-05
0.000570834820836441
0.000522059826447322
7.24898042967385e-05
0.000507742456808543
0.000360865036200688
0.000410887982367584
0.00038324402581646
0.000434816620223464
0.000508669000188722
0.000626774472787084
0.000111652176933228
9.8002840494822e-05
0.000761149511936784
0.00105725566817579
9.56997382792273e-05
0.000816330032105208
0.000767091385822875
0.000720969327483504
0.000944768345509284
0.000110156891376889
9.55810235668597e-05
0.000977455140075976
0.000973214953411551
9.27831348281991e-05
8.84747006154862e-05
0.000949208392582644
0.000595298285498206
7.66647167092379e-05
6.59916483763147e-05
0.000713735453387418
0.000639902636703997
5.96323596892338e-05
5.95938628584195e-05
0.000727324715725975
0.000593349559597611
6.46323666172144e-05
6.52889960241772e-05
0.000429474714529096
0.000345213595108867
6.14270623378372e-05
5.35098525915988e-05
0.000332302254972512
0.000304318400578032
5.12034000629328e-05
5.02262402088062e-05
0.00025574718853286
0.00022045358079308
5.84127103773971e-05
4.90955458984411e-05
2.98411408063796e-05
4.3024881878974e-05
0.000216276219821642
0.000181909125894149
3.62287795226414e-05
2.86796921754735e-05
0.000196958811944825
0.000190374112907274
2.44271898362163e-05
2.08104958088948e-05
0.000129756552219121
0.000145659977326392
1.61648538888264e-05
1.79037718987958e-05
0.000132780410728798
9.69796994603538e-05
1.99233656307559e-05
1.60183834200056e-05
9.71089518613195e-05
9.48184886622295e-05
1.9219860843209e-05
1.67102809536773e-05
8.56792530540247e-05
8.06528016074319e-05
1.90552325195867e-05
1.69416833449931e-05
8.35115312805018e-05
8.96760408242929e-05
2.7623818372619e-05
2.08064169757489e-05
9.73339761751992e-05
8.17851628663151e-05
2.49325683219266e-05
2.61660178783221e-05
8.68710378309297e-05
9.38846936120086e-05
2.98863285684833e-05
2.78293190567624e-05
8.95172066040865e-05
8.615082856489e-05
2.08788295343391e-05
2.47895355758955e-05
8.12884001055872e-05
9.26767713781554e-05
2.03164536779487e-05
2.29957476297667e-05
8.94793384936548e-05
8.32582515884162e-05
1.65606222711228e-05
1.73270128269932e-05
8.32215944550434e-05
8.76706977132361e-05
1.70562774877268e-05
2.06631467685588e-05
0.000102400447894515
0.000109542495061386
1.66260145177896e-05
2.03679046224491e-05
0.000107141661135523
0.000145956083941643
1.86418429576448e-05
1.7849637886293e-05
0.000182376463690712
0.000153800046269527
1.86611017832883e-05
2.08154331846867e-05
9.62849881635899e-05
0.000102200540706282
1.57652243739111e-05
2.25175721640671e-05
0.000104205922575393
8.97374584943247e-05
1.81214774348424e-05
1.78717158473985e-05
8.17703941542213e-05
7.96416687388756e-05
1.67267591122782e-05
1.9703083998126e-05
9.03496494923083e-05
9.61746808545298e-05
2.08046409365393e-05
2.49022954149797e-05
8.4925241226488e-05
7.92959200810197e-05
1.95828064779328e-05
2.51976398639191e-05
9.51048771401805e-05
9.82003891405492e-05
2.6029180469894e-05
2.46745522648748e-05
8.74608180342862e-05
8.87588451710138e-05
2.60101475455184e-05
2.08621396643665e-05
0.000103856119313273
9.41130144250265e-05
2.10945141692154e-05
1.63212740505777e-05
7.89836601605938e-05
7.92290014094934e-05
1.83496102229929e-05
1.77169084764801e-05
8.82212005124621e-05
9.60437385576639e-05
1.99209409429518e-05
1.56431031358704e-05
9.13410957247071e-05
8.88677010010664e-05
1.97505319738858e-05
1.85098924289389e-05
0.000126937754061907
0.000160837547429721
9.16008598619615e-05
7.98715468333271e-05
6.1008169868915e-05
5.94253934180209e-05
5.97092199538633e-05
6.74116885862005e-05
8.72037164213779e-05
0.000126579669721707
0.000248325285488651
0.000334389430743542
0.000499078575253019
0.000653390255867303
9.51502202507517e-05
9.20638783800045e-05
0.00066893613335939
0.000555427621167316
0.000100829446653328
8.1912527831245e-05
0.000493395141909012
0.000429949124722256
7.27351187165461e-05
7.00766568593725e-05
0.000460653962384469
0.000472234598120786
5.75400636905887e-05
5.61342472354901e-05
0.000519663685561244
0.000410010914157869
6.17333438284703e-05
6.59685168163548e-05
0.000358311830778416
0.00029726231227036
6.49452429910135e-05
5.75281348107435e-05
0.000266647999368495
0.000272601865789389
5.66304388831753e-05
5.23318133259115e-05
0.000212297787138917
0.000197532434638141
4.85390056795418e-05
3.41763637629489e-05
4.49584822283417e-05
3.97794947230402e-05
0.000167903921474693
0.000185755999915266
3.07619625850122e-05
2.28678540951232e-05
0.000154335129449454
0.000166502907329106
1.92027500151607e-05
1.96871209810345e-05
0.000119667342139733
0.000108169559122761
2.18906709919858e-05
2.15504344671642e-05
9.82705424548647e-05
8.37683033216432e-05
2.34843419639003e-05
2.27342586525256e-05
7.5228847295942e-05
6.95657545780748e-05
2.25727771813609e-05
2.29148163848978e-05
6.06250585803078e-05
5.42660030926208e-05
2.42033416027302e-05
2.39481835687053e-05
4.96748921679092e-05
4.53403403453551e-05
2.31694204856488e-05
2.09860814472243e-05
4.30508385042518e-05
4.00856893357655e-05
2.2995246806647e-05
2.46138508993656e-05
4.04603995949187e-05
4.0251264232927e-05
2.46017515163246e-05
2.36351373462659e-05
3.98333249123905e-05
4.11995144542656e-05
2.26430147126361e-05
2.33180550485355e-05
4.18849416694413e-05
4.53600226907314e-05
2.24434995256743e-05
2.50264931191749e-05
4.98949128266415e-05
5.56047932330084e-05
2.38576576715418e-05
2.29149229175343e-05
6.16464460152686e-05
6.69094794197351e-05
2.34196776894266e-05
2.40457517065783e-05
7.67312634598865e-05
8.62422542931869e-05
2.34883096184894e-05
2.40612714911805e-05
9.39924006267475e-05
0.00012024517285228
2.33626664930933e-05
2.2100826835811e-05
0.000118225829515333
0.000116871316470606
2.17154239339238e-05
2.24751305868282e-05
0.000149438024987147
0.000142335477279617
2.8538596135251e-05
3.62571527137325e-05
0.00014140733382663
0.00015339115717107
5.13022880983022e-05
4.9092641173118e-05
0.000173867182722353
0.000182644052658664
6.39764392591171e-05
5.32713428624602e-05
0.000223350217853071
0.000250978676554357
6.21296118126209e-05
8.32253048403564e-05
0.000363359801293744
0.000467440288224691
9.54219123845012e-05
9.10540179806782e-05
6.14338484022449e-05
9.86396343410897e-05
0.000615612600207646
0.000754576260410467
9.41072560855799e-05
8.92478308992389e-05
0.000689290306097582
0.000667129856880346
8.33491640550721e-05
8.07592801866437e-05
0.000590458118100757
0.00067790919523603
9.22888424121616e-05
8.08929440587649e-05
0.00073229583687094
0.000958679703998295
8.14168556826073e-05
7.12019851864142e-05
0.000640991713995791
0.000650493743583147
6.57960256264474e-05
8.70945721759173e-05
0.000560656498346417
0.000786015083879936
8.61404875589036e-05
0.000110739498403797
0.00120814715759724
0.0010974496708401
0.000116983926284625
0.000139771154036291
0.000968491209143692
0.000852712671014563
0.00014360391854518
0.000119850720894553
0.000573550158794957
0.000532885389631313
0.000118078697093195
0.000108059244157637
0.000614373687951379
0.000430174173512223
0.000394836307175413
0.000431400137673809
0.000548635539146044
0.000107517196131546
0.000137646398477665
0.000817781323081071
0.000874201424255284
0.000117609461604403
0.00010393062986087
0.000863049684760943
0.000604698456155782
8.49262022985245e-05
7.76126216404912e-05
0.000430919338410984
0.000449148609012562
6.85345276575423e-05
6.11426745471248e-05
0.00042926827693232
0.000477224308645573
6.03356565239877e-05
6.91055733395809e-05
0.000494212005531964
0.000382079203218868
7.59790131792905e-05
7.48978240678212e-05
0.00034259751517841
0.000285090005013217
6.78594875124807e-05
6.82173312852167e-05
0.00031739816131116
0.000225728226280181
5.86779718776315e-05
5.42211176351822e-05
4.34954733093726e-05
6.04889631967611e-05
0.000221372012852372
0.000171848975943188
5.4914108106078e-05
4.78996401603054e-05
0.000185883710789925
0.000181995220263634
4.85710927011907e-05
3.63354407974227e-05
0.000100534163631919
0.000113153256538096
4.83364953728845e-05
4.90983138156531e-05
0.000106590961569934
9.59543192233313e-05
5.13472623756345e-05
4.53118298323642e-05
8.07333605531793e-05
7.85034306802148e-05
4.09396859904822e-05
3.82239490879395e-05
8.16468452509249e-05
7.84449092481236e-05
3.850756581108e-05
3.71717486765076e-05
6.94008010018788e-05
5.43940564044965e-05
3.54624739433788e-05
3.52861238684825e-05
4.48793030464746e-05
3.83324526152037e-05
3.32328770728968e-05
3.15152549652856e-05
3.47735835183674e-05
3.26819855052432e-05
2.94946316971891e-05
2.89243253266429e-05
3.15500357124959e-05
3.05396131027759e-05
2.74439732300727e-05
2.7483346674342e-05
3.01577314554105e-05
2.96880086118943e-05
2.63102735657515e-05
2.66204892377898e-05
2.9735530630825e-05
2.9315449917988e-05
2.65085027356674e-05
2.63151983047137e-05
2.88731002123119e-05
2.86960528103556e-05
2.73218700852052e-05
2.75633068592011e-05
2.95192604280698e-05
2.94846994311853e-05
2.73026254218178e-05
2.70722845541436e-05
2.87928284501659e-05
2.88409675195119e-05
2.70012148310375e-05
2.70501586137915e-05
2.92433861285365e-05
2.94942845995238e-05
2.63008763263941e-05
2.68926932041663e-05
2.89574197669581e-05
2.93768015241357e-05
2.74470083015093e-05
2.7250751723782e-05
2.97759718891619e-05
3.05524305377908e-05
2.82729225388662e-05
2.81432026338176e-05
3.09115230658237e-05
3.1887433999894e-05
2.97122552611668e-05
3.04154975252378e-05
3.31098797421506e-05
3.53704018546768e-05
3.2467777997952e-05
3.37986360160042e-05
3.90080284043369e-05
4.56099246296804e-05
3.61577162687321e-05
3.6797362388617e-05
5.55082148609858e-05
7.15352089052869e-05
3.8993475597329e-05
4.04592236711579e-05
8.10763926787119e-05
8.6784924215845e-05
4.01070415777974e-05
4.31686658627285e-05
7.99699408464314e-05
8.50120051041895e-05
4.6103280589191e-05
5.25883363980758e-05
0.000107337588163932
0.0001176655206964
5.33212957302354e-05
4.23049374885074e-05
9.57490453001688e-05
9.38240647429241e-05
3.27173136386091e-05
2.94399917191468e-05
0.000103207404427548
0.00010151673708643
2.540884943026e-05
2.66609681409485e-05
0.000108692982301312
0.000112849261647024
3.14674100457962e-05
3.92503306847624e-05
0.000108891493252659
0.000101310521622195
3.73691922410935e-05
3.26140864517427e-05
8.15941838149206e-05
8.08232038524446e-05
3.75620865589391e-05
3.16986081650696e-05
8.30698918239678e-05
8.09763953980006e-05
3.2099003351001e-05
3.12152346330474e-05
6.94151199126756e-05
5.48615445568079e-05
2.92902467139802e-05
2.89816267943101e-05
4.39861634172619e-05
3.70903509185027e-05
2.67377738451878e-05
2.61015389190595e-05
3.32372227048728e-05
3.06645890641391e-05
2.42633385615144e-05
2.4103581391797e-05
2.92774355127413e-05
2.81883694532278e-05
2.2562073908204e-05
2.29402103044824e-05
2.77654761798816e-05
2.71018735763854e-05
2.20184648717887e-05
2.23781638414551e-05
2.67756371617957e-05
2.63169785103138e-05
2.19420587954464e-05
2.13307710013625e-05
2.67354825380681e-05
2.65081366569057e-05
2.19118702774922e-05
2.20583867604436e-05
2.60695293147355e-05
2.60322858323207e-05
2.21034591144479e-05
2.20180725330399e-05
2.6640142123912e-05
2.6702771685296e-05
2.22202071832617e-05
2.22797883448503e-05
2.60901670696856e-05
2.6248927265723e-05
2.14906032258866e-05
2.15795239749114e-05
2.65682905418308e-05
2.68816438177324e-05
2.16164783772564e-05
2.13371196926736e-05
2.69283882224748e-05
2.7399265492341e-05
2.2459104655415e-05
2.21014621665004e-05
2.78204721289015e-05
2.88388747620613e-05
2.34829582380444e-05
2.35959981889069e-05
3.01087966461247e-05
3.24850250558866e-05
2.54892602866054e-05
2.63704034395035e-05
3.62598630525089e-05
4.28451540540146e-05
2.82941553612175e-05
2.8253277327835e-05
5.38290319465145e-05
6.69666265348217e-05
2.98837829306263e-05
3.08037743239953e-05
7.78854209937144e-05
7.88497370927957e-05
3.03162495503811e-05
3.59743994990286e-05
7.99664695488323e-05
7.83038170359792e-05
3.24698525654039e-05
3.06162317858425e-05
8.12151931769422e-05
8.04165281360791e-05
2.63820657994532e-05
2.7134392414196e-05
6.96071699231992e-05
7.0279005876401e-05
2.65962716428754e-05
2.50275815571172e-05
5.32849145596555e-05
4.68043829095739e-05
2.5307942239141e-05
2.34883862210784e-05
3.588024075034e-05
3.39608010889651e-05
2.32729793095838e-05
2.1288120681787e-05
2.99308088135118e-05
2.92302027213323e-05
2.16634244546106e-05
2.01231768390749e-05
2.7639838391748e-05
2.72322317970644e-05
2.08637009703992e-05
1.9554339655552e-05
2.64527207434309e-05
2.66725104381162e-05
1.99489517042168e-05
1.99424321630276e-05
2.62064368951731e-05
2.58043051842357e-05
1.9861933755586e-05
2.05721624414069e-05
2.54593788172452e-05
2.64004046647332e-05
2.04190131491963e-05
2.02598576298873e-05
2.64131836054665e-05
2.53971887557936e-05
2.05252370284567e-05
2.04497349661678e-05
2.54684890079398e-05
2.60723938971075e-05
2.0237613419432e-05
1.96771429861486e-05
2.61670186060166e-05
2.57633472188439e-05
2.02498606536861e-05
2.07357908209482e-05
2.65125289187815e-05
2.67847096772909e-05
2.0170133555236e-05