/*--------------------------------*- C++ -*----------------------------------*\
| =========                 |                                                 |
| \\      /  F ield         | OpenFOAM: The Open Source CFD Toolbox           |
|  \\    /   O peration     | Version:  2312                                  |
|   \\  /    A nd           | Website:  www.openfoam.com                      |
|    \\/     M anipulation  |                                                 |
\*---------------------------------------------------------------------------*/
FoamFile
{
    version     2.0;
    format      ascii;
    arch        "LSB;label=32;scalar=64";
    class       volScalarField;
    location    "700";
    object      omega;
}
// * * * * * * * * * * * * * * * * * * * * * * * * * * * * * * * * * * * * * //

dimensions      [0 0 -1 0 0 0 0];

internalField   nonuniform List<scalar> 
162506
(
1.03451113958127
1.07661836378101
11.7856351969442
12.4495955899462
16.6335715234452
14.2585704616896
1.59027644397281
1.21832504746948
12.9040130695642
13.638066014386
14.1861245382264
1.1088183649856
1.11131672532091
1.01921578310598
1.002980374655
1.00607074025095
13.0955832792843
12.3548789287899
1.02202765295817
1.4660683782684
1.66572462028593
13.3401689860297
12.7729296265219
16.5121417876344
15.9606933569263
14.2447932329663
14.3964002375821
1.00632414583289
11.8143756663946
12.5091827119192
1.00241080329271
1.00026646242785
1.00199752449822
1.00002295034916
0.999894488809848
1.00379879518448
12.2940992935206
11.6840029843432
1.00902080422858
1.61901880166426
11.6729973871837
11.6196994207793
1.47101948166149
1.67965382930992
12.431322552473
12.0560067533416
1.13995263073557
1.65959800894079
14.5181256797074
17.1148228353849
12.4965713812612
12.7377036073193
17.8384618887455
14.9943030751886
1.81332993567755
1.52611778397501
13.6490032504572
13.1535644197519
1.44843585723596
2.41222482302642
13.8170724145045
12.6470115348975
1.60133108905328
1.03328969723042
1.00676594788727
13.901936030949
13.0361244677171
11.6869158779866
12.0024580886115
1.00216332221326
1.00816357005061
1.00253183285462
1.00060277278742
1.00199228186378
1.0065514740292
1.00760910742953
1.120083673661
1.31298972021114
1.84972042067705
11.9884521287736
11.9532605465256
1.53240203992293
1.00559822035712
1.00179028321215
11.8114412113565
11.6054415084628
13.1762210354869
13.9108967798804
1.00388396560322
1.01000381300992
1.00011766250044
1.00011098548592
0.99995561959149
1.00000178517243
1.00047020713873
1.00002771149658
0.999912159778908
0.999839426698451
0.999860167057034
0.999923067875661
0.999912990499474
1.00004731486588
1.0090667987471
11.6805824694221
12.2896222736573
1.00372036605279
1.00227571475816
12.4965942485982
11.8041478586517
1.00620007081608
1.46888002000604
11.6100199197743
11.6697584107986
1.61850644562185
1.88056641379551
12.7244948120706
12.7292530193564
1.88180492241351
2.02042468377435
13.4199647403727
13.00960824641
1.80742470462508
1.21735000443859
12.3969394528133
13.5338481167804
2.28592963246965
3.11166395373738
16.230917655521
18.9490439783696
13.5103135568883
15.8230964362908
21.7773470219097
19.448007902484
5.72827168961246
3.60464334201075
16.8257513753056
14.6522858310173
2.33573544943006
2.66060945036406
15.5961480887266
14.9065297595158
2.43033310796261
2.66618766130334
14.6605847452584
13.5245933480451
2.52094468229249
1.83661569268085
13.2115020863188
15.2974367437838
3.19406363739125
2.07702860779301
13.2957415296946
13.6020687870015
1.88367110575951
1.01321985953036
1.00525628463333
14.9669423927358
13.9111836686855
12.8154071118693
13.6253564135772
1.00477210032001
1.01060965411215
0.999925102090402
0.999940171290914
0.999911626508671
0.999769531545686
0.99980291911856
0.999922003836679
0.999975836529199
0.999986108221702
1.00050461548855
1.00007357650974
1.00035586530948
1.00213492597478
1.01995793372943
1.00330887147847
1.00433185009384
13.0739494111706
12.3333041524858
1.01948477100459
1.07036128611875
11.7628796568455
12.0304693375253
1.13312271089552
1.67636190212767
12.4187725380162
12.9948430258247
1.80499536776834
2.01896964876198
13.4132757382484
14.6137033905925
2.73500324467385
2.74787612611078
14.6352651609004
14.1965470220508
2.60861023089731
4.38028329732189
17.4532104854044
16.5670924466734
4.1964914168293
4.86901357990294
19.8262593004429
20.3775711242201
7.56519673067753
8.23107562895551
22.4226073070381
24.5387325484332
7.94558120016842
5.94794893111997
22.6293770053279
24.4155513164517
6.83570145686248
8.93988515922272
32.1975266897491
38.3473712924592
11.0841156944516
12.3823028736689
34.4617344564428
37.3122323831474
54.1381700565839
32.0018750173527
13.9698054149347
12.6388794625941
30.0771791326058
28.5537403963518
12.2448385497964
11.879594368914
29.9721745446206
40.5646926252896
29.148405192348
27.4414543046654
9.20559890309537
23.9757941815364
32.5244755103821
28.6462918711646
19.6722270967344
7.81890718949219
24.4908152882084
20.6068790817535
6.08288404861479
4.32475332234206
18.8775416852843
16.6885312696347
3.19993391493371
2.95987801899877
16.0787479278108
15.2883833136744
2.75583715575269
2.07572175812272
14.8633733632277
14.1534858337191
1.98353853712222
3.52582109603208
17.1323348574378
17.1379416277389
3.48582169912335
3.09092273956781
15.3369716480594
13.226377782711
1.6901373723453
1.32003406458895
12.4084188915466
12.4014253517045
1.32872294725204
1.01034391630017
12.8009994492015
13.6086987911259
1.00482129788411
0.999955102573594
1.00005120569649
1.00101022294063
1.00003221510659
1.00459140897938
1.01696278894547
13.8699302810656
14.9182942109738
13.8559395974399
1.00534223888875
1.01138140274375
13.1299495706835
13.2725958593294
2.09852596233603
1.54314442462379
11.9440083231543
11.9906310037288
1.85635041829972
1.00790299075814
1.00225596405853
11.9725405239764
11.6715594670183
11.5794549735499
11.7742794627968
1.00203037217926
1.00591021842448
13.0125231946001
1.0325247709637
1.00643539521578
13.8643168103595
14.1613283679313
1.1020438476637
1.10379114570755
13.4366361513022
12.7321860453044
1.31369495484929
2.01800041724702
12.5954317370141
16.0140904011064
13.5478548390734
13.267185229719
13.7992790557174
1.1668107893869
1.15138175888393
13.1131162750292
13.4797177924409
15.4106460634457
15.3805359606175
14.4627938004545
17.06223033754
12.4681530824195
2.09641936597935
1.55146711859525
13.1431943524383
13.6570867800841
1.65304078810904
2.26257554471676
12.703859557129
17.7920598688674
14.9512357777577
16.293414163951
18.9427547914791
13.6840722666917
3.7551194776578
2.36338276315127
13.5186557618151
14.1596716983585
2.59239145321591
4.35624904048275
17.2877599710665
17.8695763024452
4.46159587422752
4.48545539358968
17.9414430804925
25.4998616977107
7.22173082058908
9.75633890534684
36.5057904669751
44.8664103161716
11.2435746164538
10.8285907523478
43.1601321841544
52.0920636672604
16.2503685846529
16.1000340406162
46.955474456759
40.6746855385685
15.5408930438335
13.9856720429815
34.4362269666337
56.5133915215422
41.2216349380313
43.8618654148414
54.5480831818406
36.0526395513967
15.0808138018459
12.9391448763607
34.7742179529744
32.4201395895789
12.8035116567762
12.0708222937368
33.9712501947602
32.0832485024044
10.4324643479523
8.95291456381633
26.6986927651838
23.899845664148
6.92383694485403
6.47923985613409
23.8072719914727
21.7574198059343
5.71749308196767
3.67187680143765
17.6668747090467
16.8705751628546
2.62165726938397
2.19037096329175
15.6088482773078
19.5022737167966
3.86923797188619
3.73977736511599
18.3531747202208
18.3337679946309
3.74555137093259
2.04823532404539
14.8214531245535
14.0847844321938
1.91174647029009
1.91593582214481
14.0793628155423
13.2250049818633
1.69043539455155
3.10442660946732
15.3372082255897
13.5831059317321
1.91021830628459
1.2592264400664
1.0012880223982
1.01041963774947
1.01817096779633
1.00081980127573
1.00030753555629
1.00016524634854
1.30022363916248
1.11919338845207
1.35729493583215
3.21761052237094
15.2979868102476
13.2092300046629
1.84653749932329
2.52975999968939
13.5313940514212
13.8231914714353
2.43045189447302
2.47204693685337
14.9296641265471
15.6585099930155
2.76003694747369
2.55228117786708
14.7300943956872
17.1685526153911
4.02699708670314
6.2987273295319
16.4061686256047
21.8708644551716
19.6319277587983
25.0733304176661
28.8458927587006
20.9198992064219
8.6568680905614
8.1512893023453
21.010711761404
19.7414906974452
4.89570340263121
5.97747867752499
22.1123529254185
24.7820672905472
8.62717694523358
8.89712542369902
23.5316400520687
26.007003433499
10.0167786662882
29.1686750584728
33.52965786845
43.4679613433099
32.4679136455122
13.529378821596
32.8248129245034
34.4755622101512
14.8064843190648
15.9708459303194
39.0586707482193
39.4440394670604
57.6530989530703
41.1131282710077
17.516333348596
14.9897835254813
36.2257722574657
38.1869417058055
13.0358316958678
11.8959662103984
42.5460227978265
44.1945804903984
11.7009740004592
11.3348745575276
45.037303373742
45.3481015783242
11.2923828061737
17.4190142790536
54.189947658176
54.0372098219788
17.2437326919713
23.3478747943093
71.4081830389673
70.0013955692198
22.3441659104351
21.5125447309505
67.1428884816913
62.6353977798286
20.6828828831927
18.4592812233442
57.229389775897
50.6730623752619
18.5464157809621
20.9528085617334
59.5349892483288
47.0137257763223
56.014200976605
37.8577357600899
15.9118119258022
13.1899939637629
36.4489971870533
40.2650366327235
12.354460891023
11.2928404834828
38.4664503346864
36.0895723861772
11.1356925564562
8.2658679869992
30.4490540992895
27.8445693644842
7.5932249905182
5.11679279072145
3.31846608762966
1.67692386840373
1.78020041957013
2.29299734066299
4.54846760016842
23.4465254767924
22.5422180942065
4.70027227635112
4.45793736443384
24.4092468900326
26.6804804072387
4.93960039113283
4.90131819547213
26.0806048931672
28.2895130687098
7.48803067615853
7.23727253299207
29.0031126951925
30.3148397251695
7.14981337605547
8.7555628102556
33.1838624882534
30.603753664013
9.06136317157423
7.05126435906401
27.3167145460704
4.74693142953215
9.4393456700925
30.5869621622421
38.1763944204849
11.7934798631028
11.1792059404859
37.0491003440069
31.2546599004462
7.74513230588944
4.84604386755443
25.412561257623
25.6193159107075
4.79473810948786
4.82564767648489
24.6200260861964
22.5845800046436
4.69219622352563
3.97870621437057
20.6809707491111
20.6445309458286
4.00331014759253
3.88740732774132
19.4683349664099
15.5074349811297
2.12248033327817
2.12949725464633
15.4929360798054
14.812719091483
2.05692069491322
3.76001649430925
18.3120040272499
17.1300891829067
3.50282567967084
3.5383322337427
17.1283015751038
14.1430994544175
1.99325451547873
2.67844380463756
14.6655893711866
15.281859201508
2.75806086216617
2.9422009618392
16.0348038305401
16.9463043492036
3.51368760653317
4.74525346760574
19.4353606674669
21.586446572773
6.7887502076287
10.0434898161444
28.8417293786654
31.7879572751822
13.5130701385678
15.0202763220352
40.8201401211794
43.2491460235605
16.7970282719211
16.4155995751763
42.3817581436282
47.1531020645377
20.78727224808
20.8366278380585
49.81845353322
47.5357332933667
18.0411485525229
19.6511923916071
52.3307479667136
61.8650224003266
85.4116258097151
76.2920844264458
27.927341599514
30.6905338082348
78.289171207655
71.3667305555886
28.6164756088642
23.7694304259723
68.0226792215143
85.5397118963106
55.5440618319785
49.17458508515
73.4746355043568
53.4717043911791
23.5455855559369
21.6420103681627
48.6658108704991
49.2830142326412
19.1597566187517
17.6695024946292
52.2891483601302
53.3300494057314
17.7639958586688
17.5222043130432
53.8436340790003
70.4461866276514
24.2152667229209
24.3430001819451
70.8189820393056
71.1284342200793
23.7008026358428
23.8420290948931
71.1740829791738
96.3635041674227
34.5769617547734
33.8769441943291
97.0491273330952
95.7657422710918
32.5641540545908
30.6825499399608
90.7240032807845
79.0964655220477
26.2233153460726
20.5293830335427
66.0005732392686
73.8016750006152
22.9468499941179
23.3503741462896
80.7369516755719
83.7875216551247
24.3322704582478
22.0963369761981
65.3066990851291
49.3646672948532
58.16405789879
39.275582722816
16.68202487541
13.482783197893
37.8996119080465
42.2950179970024
12.6098600970655
11.4105618590627
40.3309749063505
34.3252747547698
9.19918287799123
8.64935331259965
32.8793582194802
5.82415870377997
4.05708414213261
3.84304560814458
4.60368559197767
2.65946990555498
2.29894904227531
2.06313380548058
2.22861003079168
1.4512655471285
1.27248114437453
2.34862476807406
17.5292979503417
16.8676946958063
2.23263786846323
2.16981349512282
16.1810441654185
16.1472532387949
2.15327709268468
3.97513117329191
20.491044811622
19.41597492985
3.90510101634944
3.82418882500527
19.4295270419906
15.5312527244008
2.18299412203057
2.89736426205902
17.1087344443
18.0302747177837
4.05209360318239
6.48924460600452
23.3511442211145
25.7298148869571
7.96638568781272
7.66118105575407
25.6651420177439
30.3759972017861
8.71342111162201
11.66680311784
35.3627724862475
40.2741408074921
11.9820099932567
16.3073444585432
48.3622454182754
56.2099369039086
18.9531705304889
29.345157251979
83.4762963131724
96.8264949925231
67.1667743543965
65.9367517626323
95.6111104998055
90.4604533102764
30.6109106257447
36.3427160046081
105.460227865536
106.087431386858
42.175208937892
41.225239209187
107.557122498567
131.396666348237
46.12261814246
53.1656863046909
147.585754219118
142.414510536323
50.8733247774888
51.9945063486619
141.386908495225
143.799490732906
52.509207521692
52.3886489896828
143.928493288186
145.020221083986
52.3242206676994
52.5604651641505
145.252251606062
145.558215708989
52.7551363977887
52.0725316654552
146.107675437653
146.240901592445
51.5345140535291
50.2714125116717
148.138878568692
151.470820400422
50.3406286034674
41.4323048802482
131.418032051622
96.5430477602628
30.6196506556093
32.1091004284976
108.314189033539
113.734245911174
33.8256946470225
36.1240826389215
120.513281744281
86.6156791738216
24.7271148580051
25.9915066909406
90.2481505762813
69.9018304791207
23.1996218102833
17.3803190468012
40.7934289608546
61.4845502786613
51.7828768082694
54.4756071258174
65.6004379039076
42.8249724018052
17.9061123857765
14.2917297510019
41.4650488251147
39.414714384301
13.763585728663
12.9701523230028
44.3946826949575
42.2868340286715
11.5917737034917
9.43724500976978
36.333234810171
36.5978113171937
10.6979103846994
10.3443962347477
33.8867469647021
5.72121265196894
6.36115812827249
4.98214529754954
2.31413569340417
2.48120730920535
2.20192642680243
4.32146844619683
24.3355235796039
23.2235457109931
4.2093322777501
4.13148560817319
21.9532437558534
1.9144243725586
1.16199975097998
1.14768556038054
2.21395709387625
16.7715921410616
21.5703555270012
4.02312872420382
4.03192527164363
21.7662131362819
19.7543319649903
3.56329340292276
4.47935577850069
23.1043227416344
28.042691795245
6.95371807732861
8.8239662884423
33.16471588261
33.8773377131175
10.5075423215466
9.04020436460449
31.3621344205664
33.1522674886677
9.31358736522619
9.79482949077272
35.5299436174564
43.02658473813
12.5336795700528
17.301233690207
52.3137415080898
55.2907733708764
19.3630838602252
19.5958699221804
57.37880054412
67.0141495912209
97.1074046287468
95.2682977169203
31.683458292028
37.9104724227378
113.881716788356
127.134023345627
48.1603609619173
53.8997391068759
146.721120298264
192.673019674785
59.6817172576844
65.8990384140176
258.227002023422
295.107156276566
66.8690837559341
70.696206789128
283.726153628305
277.248799536667
68.4240824750411
70.5036250191732
277.811483058875
277.003304613411
70.9539351606552
73.6805937158111
280.332952557312
285.006323918506
72.8851101750132
72.5379120235889
286.335464408981
286.244504365546
70.968704319616
73.7555679602092
287.316398705708
289.921363375942
72.9068798355276
71.7506098416014
290.103505323133
290.154099307676
72.6995483155201
73.3818124664549
289.769799885034
289.267043897247
74.7109554179694
72.0963194269083
288.062187233269
288.432224883488
72.8288532576624
72.456974025762
286.623841175587
284.166824476366
73.0759018120252
70.4325576986671
281.264779581591
282.269495431337
69.6527033299871
67.0849783661072
281.877244853682
287.214499288889
67.8248634281186
63.7604066686183
298.846092685544
259.129944003915
62.4511924413885
61.993768463178
247.736205317483
238.773178775567
66.3050615476084
64.943940889218
232.992416409333
230.227055696531
67.3455826491195
67.0277910675295
227.441222374058
227.760227421524
69.722364965832
68.7075534098295
228.152172508537
228.378064096755
69.615904026751
68.4355889742743
227.498565149812
227.75310935292
70.3125729225108
69.3303567924469
227.56561601564
227.723034674766
68.9038703491701
68.2596301742152
227.472012370986
227.233360531762
68.7987980893137
69.2271555602838
225.635498354855
225.173157541134
67.6404666215091
69.262583774706
225.513979779214
224.948630115887
69.0326194192241
69.8485845322165
221.692244886364
220.504625505837
67.1738550384324
67.7289446111073
222.222731178972
224.423266725265
65.7353547726801
68.8810336621343
230.975491207542
242.158536136492
65.1604803178973
66.3976811303626
36.5826889066884
23.9446232219514
13.3007855556277
10.5601681026425
7.12195807003898
6.01170208075403
3.5732508795026
2.80097588868458
2.46874718225709
1.85850858569161
1.80222747399805
4.13577511163294
22.6569671028299
23.3843172709048
4.32657466508189
4.54510166637095
24.9493248714523
25.1188093592709
5.06164532748549
6.7667857572364
32.4937953761874
30.9133243064921
6.5414002931073
9.70632299049231
38.6437007447431
39.9233588354392
11.5085677515558
9.66681651096283
34.452995426022
36.6064555053113
10.0071611443956
10.3539375478632
37.3054885359431
45.293049239972
13.4496342240719
19.0731588351539
57.7636950263963
62.8680109417403
21.2173051583627
34.989620180521
75.5387483215426
105.862719621618
95.3240010479013
123.214798143038
39.7046157113739
50.1092581775342
144.619498705294
191.961799771095
56.9229620873334
72.477771429999
290.985992481927
333.521745237647
73.4061780006102
73.9765437700301
314.923495621635
298.797600036558
71.318776335321
77.150298452334
292.099894598997
288.685501664152
77.997071311797
82.2545688351328
294.719396682901
299.861469770233
87.0380395125923
92.3566289749431
305.767424387565
309.728932723166
95.2624633096137
98.8763817980611
310.548779744742
311.001548089219
101.375164015942
108.664439531559
312.957101383857
316.512717470697
107.350647266503
106.361389254606
316.238055556951
315.799884656445
108.105927445445
106.405409396382
315.372399679596
314.075504027612
106.519339071815
100.039167949768
312.258498402316
311.976645771185
95.2734021879782
90.9040795636829
309.710634121306
305.116024402172
87.7698722770741
83.4143997176848
297.857654678884
290.390110041194
79.0614854636727
74.3608638928077
285.161341882672
294.757277623083
72.8032066996695
67.9477787542187
311.180988981209
256.592242889544
59.3007542898517
57.6989854129679
251.84847250093
165.970796726843
44.0719008585289
47.2795220489987
174.482069361881
189.651347106533
50.5166116842428
53.9233961325822
212.499774239679
129.269302221647
38.405382497232
40.6439335352055
140.954662242175
93.5975532622114
26.2872289038238
27.3463037253383
98.5157851614422
75.2097533081596
24.1036299381064
24.6248585554954
80.7080210191568
59.091367999291
73.2843051246539
48.9244532829394
21.0652817187352
17.1546710085382
48.0443366470103
51.6547004681029
16.1203897646108
13.4824933000989
48.5271572785993
44.420467512105
11.8042247489384
9.65179997696284
38.1640231502213
38.5777093833019
10.773645823838
12.2298238995118
45.7243678785765
43.2678766786355
12.2545163701313
11.3732332771118
42.1429987508504
33.3178494167783
7.09986313799862
7.115129497869
34.2657062537868
28.4589872491386
5.77130582408626
6.21826026879746
28.4570012287827
25.6361031447613
4.48396534284477
2.57627887384664
18.875055003896
18.14283222357
2.48990094509488
2.50540627211068
17.9956446120418
17.3751064717204
2.34159624139456
1.27909074352371
1.47430226089737
2.00324898997562
4.31545695886616
23.7983497300063
25.3020258135957
4.5883919293663
6.27782095883556
28.143213674486
28.3050008181721
6.16190338207627
6.64533890090925
34.3884296463728
33.431423882355
6.50611849787924
10.1149760400945
43.6770254644367
41.6938427039171
9.94520574442602
11.7481251877191
43.0869296780875
45.425544654439
11.870952847895
10.2940312941956
38.2785467157251
38.9181937589772
10.8278013444402
14.320401817455
47.6413817523523
62.7649342654482
20.1233377235818
22.1203355770918
71.376732699589
90.4909765231005
125.806530055734
101.559371945296
37.2962736972186
42.8348775613644
144.559148675064
173.315217750066
54.3173086365551
63.1460100169819
237.033810624558
343.56440809937
73.6568845927655
93.4475692854819
452.259256610735
422.290751739313
96.0761075123742
106.380518869557
425.000118687096
504.412010389951
133.569673270733
170.002503946545
641.719318009703
800.007273788691
202.044556505687
215.682156470197
845.713682339507
860.249835211047
225.890421036261
240.942482396801
863.626825379117
867.644410907777
262.631110443312
284.629918634266
865.865657094131
864.349781484378
304.307703623124
318.795644825662
858.458608343878
856.897588978497
331.517632447222
340.351858807561
850.828175734616
851.741118396133
349.44101530504
354.690089359822
848.604708140969
852.76933375679
361.869683830266
369.839334563026
853.212960755382
858.984187349552
377.894978691763
376.960797592603
867.548012311769
870.490407372946
371.567892047729
368.996626243903
866.404786925547
864.628207351626
376.533104423741
380.535746343313
864.264202689619
862.272649102941
373.41871503311
372.119924177936
866.118304327607
862.736435894769
370.44935581195
369.558020222301
865.221698117216
861.744485423306
361.341272543506
352.863365811531
863.369045588027
861.40414670805
343.075351987363
332.934961028378
866.548776759941
867.646580336439
319.028531807743
303.460677226412
874.959225156227
877.434976199827
283.183426482227
262.743094468645
881.785044511732
879.753663069162
242.602882087613
228.587710969841
876.647132286529
860.437393885381
218.113969986467
203.083096576837
810.680785544888
646.247517172104
170.872828982963
136.080332220766
518.153293493155
458.973163071983
111.175031743489
93.6644516972446
459.022081480465
325.5599864078
67.2825044688981
63.2566351729443
298.865359023797
281.405829547503
61.7082172312046
58.9807401976997
265.338771189255
335.555139811649
71.2480261993408
77.9802946935196
367.148053859444
408.047125552307
84.1386055380396
100.052780533018
400.180536430249
434.971147040616
121.83621539007
161.041316275564
586.901020434718
704.740292631282
194.552925117247
207.43047720563
741.702337888619
756.081131451797
216.648929467839
224.593807988716
762.179902503097
768.333124996869
239.819854507372
255.81628958936
766.047936937254
767.968801792358
273.642901355024
287.861258637583
762.165469713843
764.32176443524
301.180642259132
310.90780091417
759.542668527561
763.231339865924
320.452829540738
328.288601556413
761.769044083284
765.80294701727
336.396241749324
337.331915362486
764.540661011554
767.466439439034
339.923947410371
340.916477132709
764.354003777162
766.33870227155
347.379759558616
343.45038729721
766.908568897629
767.574377357421
337.420592170173
339.750530582144
770.79477291202
769.019090441948
343.501051014913
344.347240476075
761.072679433998
756.593389449127
337.115423618919
329.400148442014
755.599019375192
751.41786379658
322.38243542725
317.462586215983
754.358603414777
751.514840630347
308.290504648854
300.118092212064
757.045538072154
755.346789672786
287.941679570403
274.658432370081
759.689279424572
757.256499264718
257.428755611226
239.480481833425
757.10367120159
749.762875127024
222.727473129865
213.877468267967
743.837034892105
730.407416030641
205.109123468721
193.030084547668
696.224694475614
582.226204277202
160.061672160084
118.547732706658
426.017844884609
482.828386333571
148.221898603885
174.393597368444
546.463165148263
567.507561382125
184.662588258884
192.598645557398
578.415943849335
582.487249606465
199.678809295303
212.090071905536
589.359222140154
589.589086275995
226.086611121398
237.831762228936
594.803246969015
592.065323133124
248.670881764584
258.585718457573
595.939364451197
591.367797180652
265.741883064267
274.0887905272
594.99771111453
592.670955709212
278.654551837533
284.701529143162
596.050280742429
597.441572243075
292.2228202926
298.126744285483
600.181746106264
606.767595324403
297.307908180524
295.418630261765
607.785778190744
605.520492813497
293.360796336289
297.201624097011
605.362175642523
604.731416332484
300.840048257812
296.023275088871
603.344869848503
605.515836658135
295.303245202217
291.860060549638
603.24833018991
603.510363073743
291.106915464972
283.7761759793
599.96662197017
601.036091479173
276.650934666322
268.433256723977
596.768466890293
600.768498335722
259.602071847622
248.765446161909
596.412511197139
600.533112376207
237.265316819514
224.806582526878
595.180218717418
597.256644760545
212.777288443713
201.115774826096
590.698300199413
586.397177732634
195.074655657836
186.883274995589
575.535631293956
553.628157059472
176.271698749375
149.363404900917
487.73415390032
400.226837749406
127.652119479193
99.8484896182341
355.239729771871
353.736040459963
88.3739192453649
79.0721382457193
319.202605720258
311.043264792209
82.9488068041897
90.5268948401872
321.765846202348
334.097903564432
96.6834182353731
141.341807841972
426.492904415058
436.139629776864
152.71970906717
170.51966178456
438.767416185525
439.502386425925
189.590907913053
206.062514578018
439.56388490382
441.671329985634
219.351293841476
224.502042070712
443.637972950659
443.658384849017
228.755931235872
226.41074962022
444.655440835328
445.742382165123
227.223124786218
226.491223732258
439.791199771379
436.573859156403
214.484037778229
203.809759136987
435.803583418484
436.254691235534
189.482473849376
171.820727734916
434.650568164361
429.905267534222
152.710850366876
139.770904062042
420.343049197342
396.086904106834
125.696082587809
97.7284753170429
351.517753637039
332.931985228242
82.6776215874233
94.6869259311706
372.429333928699
375.991212230323
87.7808741205609
84.7739570719071
403.157058655906
315.684867033508
70.6840537333545
60.1079328714004
208.487918628257
298.662200771674
70.7289813040183
79.4242419936065
365.481524095456
341.520671492632
80.2839963300039
76.0899969309412
321.639184085486
310.009909325566
75.6273300378463
83.0539811543199
313.675203679096
319.584880313297
89.0526500642792
95.2941164445096
329.4116572227
335.65459256864
103.451905215158
115.362460469538
338.911592424549
339.867263408994
125.786007585358
134.915707511396
339.219656606413
339.15364924411
141.799328884984
151.409132981652
341.287044474387
345.005628829632
151.367571514263
150.691493108973
344.555296426663
343.977696638168
152.38865777666
149.283953358439
343.577065187671
342.696999928127
146.534554786551
136.723064530061
341.518677936099
342.455042142985
125.769729840834
113.876660464392
342.494336228643
341.223296591693
103.400307357444
99.9860277059002
84.4061539490825
80.5641449765366
75.8803519424767
72.9431001406293
63.025847894739
59.6819982382881
55.5685988715777
53.4181183558597
44.0055082489353
41.9615919915347
38.1456005984646
36.7290428225132
34.0727303033925
32.3857370553265
30.5905860343051
29.290083680055
27.1806196960671
25.4731210842679
23.5557288214219
21.9184536306836
20.1276435923758
18.3424573269245
16.3089258272644
14.6953987822122
10.2776701856425
11.5563582904603
9.23633646289519
5.88585254310408
2.8659765593488
2.03204834334441
1.42540925481631
1.54008564656315
1.62310148969876
2.63610821741501
18.788734560115
20.7415913650464
3.89635045630193
6.81292703649113
28.904743532506
37.552836131995
10.8096252622321
8.29716083251496
36.1596690012115
36.9699773140795
7.0022643281541
6.57083786736882
35.3626215582952
47.4439575812304
10.1395891511698
10.2160895671472
45.6470339219563
47.7102441727542
11.9675151807
11.367117180563
40.9901723548937
42.1368026254225
12.2109623602482
15.0302872357232
51.2870072172706
67.7528197101049
20.8197288704299
22.7199562191646
77.3087445962849
100.154107030231
144.754727561644
114.966292780235
39.0366361321475
45.1709687707422
172.703334395905
223.696790578315
58.5507455508642
69.3557427636443
362.197373797673
552.698685725035
84.8696869960407
139.923821414537
826.296550243209
775.578013712613
141.888203810667
171.016080190864
836.566453083991
1113.75782992875
217.150432613633
296.473489241004
1602.08634327657
2128.98604334148
402.297861633385
437.35487423381
2238.9138603881
2242.02063633142
437.504365131741
444.787213137753
2197.57056348534
2125.79611521321
461.649158540568
481.74698912329
2079.57839308381
2110.15315953524
471.828601107309
442.664410094198
2158.91155222713
2193.52271089904
416.100247325235
408.494926914045
2218.33073186552
2224.53493565336
405.157957322976
409.127019698291
2229.94558075096
2232.51387457071
408.64774193747
411.2096224126
2225.21821068654
2240.74969699758
417.351577544362
416.535363824426
2246.44289879339
2274.15743396756
416.849649258084
412.671520029855
2264.92859653546
2244.10551718085
412.913467436387
416.676699426435
2246.39062837699
2247.8343652627
413.662842421106
415.24448403169
2258.05044812367
2244.64541604148
414.867364523691
414.893282141566
2254.83131493486
2258.43739471969
413.127460380955
409.025884606061
2254.26711085768
2246.57957780743
410.849552436045
417.466915540594
2221.21925221762
2186.29560783226
443.506570368638
474.48798126619
2141.80072379678
2115.41118672285
485.376961442927
468.170777447564
2165.53007913061
2238.64133678324
456.562684232368
455.014791401874
2282.82178707239
2274.18701253147
455.954564256867
412.85814165952
2151.46766276542
1608.70886960037
299.018672725136
218.415005512825
1147.83222874885
908.881910940671
169.692553701626
144.957660412838
843.371710598048
524.721635373078
83.2781461168351
76.8224902909775
449.049657491005
401.132690465688
74.6271795476199
69.4546829915722
353.92155759871
529.299142549031
101.371297147364
114.346761622167
620.640839412718
726.83612084894
125.892142817055
150.305243870809
766.253058212464
943.225968974452
187.183743409109