/*--------------------------------*- C++ -*----------------------------------*\
| =========                 |                                                 |
| \\      /  F ield         | OpenFOAM: The Open Source CFD Toolbox           |
|  \\    /   O peration     | Version:  2312                                  |
|   \\  /    A nd           | Website:  www.openfoam.com                      |
|    \\/     M anipulation  |                                                 |
\*---------------------------------------------------------------------------*/
FoamFile
{
    version     2.0;
    format      ascii;
    arch        "LSB;label=32;scalar=64";
    class       volScalarField;
    location    "700";
    object      p;
}
// * * * * * * * * * * * * * * * * * * * * * * * * * * * * * * * * * * * * * //

dimensions      [0 2 -2 0 0 0 0];

internalField   nonuniform List<scalar> 
162506
(
83410.6093131351
83411.2538080076
83410.9375183357
83404.6868793561
83398.9370887119
83381.6733355309
83401.4657410972
83401.1527091924
83379.7302219954
83456.082951713
83459.3880364256
83430.7828895238
83423.3002073369
83417.3008455554
83418.154868403
83418.9675097818
83419.1512808592
83416.2495133884
83417.8656738963
83420.7261443115
83429.0042122253
83427.3303126004
83415.8088900966
83430.7042271786
83443.634276253
83457.7088901301
83461.8222118998
83414.465852004
83414.3439844521
83415.5456012234
83415.2648247874
83414.3551236121
83414.0183936525
83413.3091521249
83413.3868010239
83414.1318271496
83414.3359008174
83414.0994496941
83413.9530398241
83413.0251282471
83413.0446682804
83411.878766696
83411.8234492083
83410.5533970605
83411.4595900399
83410.3996133239
83408.981629002
83406.8330852239
83395.1402142638
83402.8660013298
83408.788946713
83412.4968694973
83409.7445399676
83407.6219162875
83412.0216803451
83409.6375967265
83406.9907923201
83395.6068328135
83404.8143591025
83407.2834706087
83406.9668702032
83398.3620783607
83404.796286631
83413.8817010339
83420.7021166534
83433.4128532987
83414.2280099192
83408.5935468139
83421.5445799922
83413.8179000204
83410.9622111809
83412.6455155723
83413.9163991988
83416.554342956
83414.4619881173
83409.063913209
83407.2790395806
83409.2284564825
83408.9465794335
83408.9206034952
83407.1645833495
83409.205479813
83409.2004117531
83410.9820219228
83415.6815011523
83405.551204589
83405.4744441171
83412.590153983
83409.5564147949
83407.8231165301
83409.1224481557
83409.6164978827
83410.6916361463
83410.318575172
83412.0274566111
83412.4408273042
83412.0477439903
83411.9286158962
83412.2714641629
83412.3760518252
83413.7114124161
83413.6526211532
83414.2803314229
83414.414270643
83414.6274247179
83414.4224953509
83416.1113215138
83416.3713506514
83415.2463371083
83415.3484604592
83412.9282510767
83412.9523443184
83413.4265964082
83413.3927382589
83413.2837689719
83413.7806637306
83413.2795412941
83412.7691486083
83414.5004379709
83414.9641744186
83412.9237368138
83412.4155010379
83410.6804936666
83411.7299557632
83412.4088840986
83411.7158364815
83411.642579198
83409.4058130624
83410.1985871368
83412.0705129777
83411.0746244239
83409.5274639631
83413.6638708455
83409.6830241373
83404.961546585
83404.8256148976
83406.2706161512
83408.5416409703
83407.3426398064
83406.2257986215
83409.4930949406
83409.30848107
83408.5958541559
83407.7791817561
83408.0092535251
83408.8078694035
83409.0826995704
83408.9124659337
83409.6991582645
83409.6849262703
83409.0556300669
83407.9728399617
83409.0928810707
83409.1961350067
83406.5277341254
83407.9354488791
83408.9516465794
83402.6843963932
83405.0609510153
83408.7373451618
83408.0511149632
83407.5285276267
83409.2291873811
83409.3022379202
83410.6242075966
83410.4660562531
83410.7557026822
83410.9098891772
83411.6096641925
83411.2552674875
83413.0576544527
83413.4214116249
83415.2598791169
83414.9783499219
83418.668424141
83419.5090031676
83420.2350997269
83420.4366324617
83417.5906755305
83418.9654088274
83412.5702307333
83412.2620172581
83412.4924638979
83411.1037186344
83412.1393762702
83412.9971041216
83415.0204478211
83414.4531583113
83415.2085315968
83415.6823439437
83419.2472876483
83419.5351418851
83418.369003066
83418.2228994404
83415.720581053
83415.5292355585
83420.3215553396
83420.3382115636
83413.7809648888
83413.106785714
83411.3036321898
83412.681472594
83409.3476225136
83407.6907708866
83409.2842176719
83411.8448788878
83414.4572154447
83413.4158727007
83416.6697961865
83418.5760966642
83428.2745992911
83427.6953230567
83427.9087473636
83428.5009296393
83432.5559917138
83432.3778555146
83418.1224026448
83419.3064318698
83416.8711292566
83416.6961751005
83419.0763958479
83415.7748107085
83416.1507145082
83430.5964727273
83400.7561960844
83411.6137891884
83411.0495611689
83413.1740655872
83403.2775672516
83396.5141838952
83379.5986908093
83403.842423082
83407.4364836769
83395.757391198
83400.3352380718
83406.8749582013
83401.8023326857
83387.2163760962
83374.9214957385
83395.0157304973
83398.7184637507
83398.0739509238
83403.2290368695
83404.4337486992
83403.0670655808
83401.5137697017
83405.4756931513
83406.4997380453
83406.1122577076
83405.8561883699
83408.6901009671
83408.3191805177
83408.42932758
83408.7322900578
83409.156950057
83408.5653313266
83410.1731811332
83411.1762385722
83410.577074839
83410.0619284721
83409.3895924256
83408.9286617137
83409.6404044569
83409.7916504976
83407.5509090556
83404.5323005095
83408.5361602795
83408.080939762
83409.4834788018
83409.3954186109
83409.0837854575
83409.4868406776
83408.284110283
83406.904896233
83402.5412572712
83409.1821076768
83414.2530356443
83410.6338572924
83408.9850852701
83407.085790417
83409.5248425793
83410.3450522819
83410.44811877
83408.2105967015
83410.0675480341
83410.419414157
83412.675955817
83415.5565091133
83424.1466504176
83411.1194452762
83407.3248205677
83417.6327188127
83412.453558101
83410.5728020714
83416.1574553814
83415.6214535005
83422.5656370373
83435.9363393029
83461.9533039982
83432.7711247983
83425.1081045159
83457.4564953637
83380.9690665976
83403.264942581
83403.7408413276
83407.1540580137
83402.1473266851
83383.8804455581
83458.8773973012
83458.0169858878
83430.9209466467
83422.1149302311
83417.6318189755
83428.8355176784
83444.1416785485
83432.0692966343
83398.8973852558
83405.6729994534
83411.0943743973
83409.2726943599
83407.2328113069
83398.4451542771
83410.3964059045
83412.8900330721
83414.8593059679
83415.1152921669
83412.3598894204
83411.0715343177
83414.4249379897
83414.6322101867
83416.4128006356
83416.1349033872
83415.9873685638
83416.4408795339
83418.4514732146
83418.6159436973
83426.4818411272
83426.0966591397
83428.758296847
83429.1201239826
83426.5457655613
83426.19962058
83441.1184669563
83441.4791141439
83459.319154579
83459.2758653121
83477.0870907864
83476.6945186965
83452.1758484079
83452.7672536714
83462.5869132572
83461.9724395731
83435.0681463527
83436.9164125792
83419.3686333494
83418.5315435944
83414.5558631511
83426.1633179723
83418.1864266526
83413.8449368474
83393.9540335188
83395.4163807176
83398.1223058465
83394.0743690624
83395.2523117958
83407.3285519367
83440.366438694
83419.2220032845
83423.655829322
83449.102580149
83436.661911372
83419.2396800292
83402.0370626209
83390.26021799
83434.6196804764
83407.1690828451
83394.4651453902
83394.9857222146
83382.5945807881
83386.9414877311
83395.8022855317
83392.8831392569
83393.085359501
83395.2646910182
83402.2817066602
83401.2063229694
83400.603321371
83400.9545269052
83405.4367873093
83405.3907522138
83405.3452464865
83405.2987575729
83405.6858228729
83405.3730220274
83408.718442721
83408.5614484877
83408.8537541443
83408.9189969485
83411.5645831943
83410.5602488616
83411.1957328055
83412.4782277715
83410.7890082033
83410.2122980743
83409.9191952718
83409.7994827628
83410.0475962181
83410.434976007
83410.2827723248
83409.8775372116
83410.3788680932
83410.4229517846
83410.3936775381
83410.5144496676
83410.8787665524
83410.6623633844
83410.4607534485
83410.6719797433
83410.8708865199
83409.7352566722
83409.1923404752
83409.5181215776
83412.5456530537
83412.9568974005
83411.2009096706
83412.0146153852
83413.3645782153
83411.0421004738
83412.0512429916
83412.6330879653
83416.7472380438
83417.7494112332
83416.221165878
83420.2180898572
83398.8097632628
83410.5322778616
83417.0724173429
83412.9748126627
83419.2055048044
83421.0336058076
83423.7471717324
83421.7960827663
83428.8499206839
83430.3194856584
83429.1703165909
83428.8675127824
83423.1536334745
83425.2937145273
83421.8846939855
83420.0166829762
83393.889499576
83409.4589377001
83420.9654207962
83433.5594397328
83431.4735575472
83411.7484637027
83417.6745316287
83435.9870686335
83443.4710444516
83449.4057288615
83434.9702055573
83437.9877099354
83444.4147946011
83441.0056605361
83444.975597377
83446.5532589336
83464.0735264294
83463.473842467
83485.2884264045
83485.7481333845
83503.7154927268
83503.4014464608
83507.9021375246
83508.2295869523
83497.7665566915
83497.3473722297
83537.1388198273
83535.0907699517
83500.3563192848
83500.9239869125
83505.6630970853
83506.3931396705
83480.4246359939
83479.1273795304
83451.7406376916
83453.2320667687
83437.8355835805
83436.6578520098
83418.1088917738
83417.6663711816
83403.6117646692
83403.8698764718
83372.9290651297
83372.7368439776
83364.2735984406
83365.5145255284
83364.501340385
83363.6592123696
83362.8126247826
83365.9007111302
83364.1036184885
83362.0476184344
83359.1687325597
83357.566445382
83388.9833757887
83388.0049155851
83380.1422992553
83375.5180242348
83405.5833977476
83403.3349562747
83405.8889509666
83397.3302394579
83404.4646241912
83387.7154828269
83366.3421102317
83369.9185909477
83354.332021819
83391.9850843924
83365.9419775476
83356.1305435831
83425.6760452383
83420.6255345718
83365.2063502366
83370.6089076883
83393.6009144732
83393.3286812487
83369.5013053609
83362.2914598698
83407.6326314866
83380.6182520087
83351.2277506413
83359.3215123502
83382.9586285404
83374.4566071207
83367.2558982766
83368.5145749925
83352.4969441394
83367.5333389018
83360.7962645336
83354.2652453911
83353.1064951498
83340.2489417587
83338.5458359551
83349.138002632
83323.642870187
83330.4673225722
83312.9302816827
83292.7710632831
83318.2341901172
83319.8046224272
83358.2980324728
83358.2351341398
83383.3137045297
83381.5707923889
83393.5851369267
83393.1721860222
83392.5445727143
83393.0760176968
83400.6893937854
83400.3810738622
83400.6408309106
83401.3176092634
83402.0295391487
83401.2698165667
83405.7781984601
83406.1621434442
83406.6897755074
83406.672447452
83409.7973125157
83409.4063040941
83409.9430905969
83410.1264564292
83411.1110337492
83410.6016322401
83411.5310240873
83410.8680082523
83409.763843161
83410.7099849029
83408.9941953789
83407.9493703659
83410.4712723291
83411.2380949345
83408.1979382531
83407.5485038962
83385.1253189416
83406.8323924369
83421.8848495407
83406.8163045453
83400.8092475394
83426.7711886018
83453.8448002335
83476.2207978001
83477.6020350439
83455.3140996542
83452.2707416237
83475.1043761311
83467.7822670803
83448.2931271094
83447.3872220044
83463.5695513917
83461.5236335275
83444.1688967182
83430.3044190013
83441.8624356109
83432.2892440853
83432.789157113
83430.3530665556
83430.4237174517
83433.2293058036
83431.4470497529
83440.2738494087
83441.1111916075
83443.8764147985
83441.6557142777
83449.2529819223
83458.8922321831
83457.9284455925
83454.4688985443
83450.7991536739
83449.6312030458
83454.5532404509
83456.039367215
83482.7966044712
83480.5824174088
83515.2811407322
83514.9274530306
83545.6050764782
83547.7606303743
83556.4246881774
83553.633156815
83610.7692081535
83612.1011492843
83596.7336153561
83595.7716981987
83571.8447497432
83572.5996067994
83544.5332797286
83544.6184002677
83560.441957076
83559.4537416144
83512.9354753577
83513.7141253755
83474.887547461
83473.5972639811
83444.3291206354
83444.0403789656
83424.4507401843
83424.9172061076
83408.7218470807
83408.7380334881
83391.3363053205
83391.3541115996
83370.8596221078
83370.5752907339
83344.5919139022
83344.7388438832
83334.3269866495
83333.940094795
83333.3883386207
83334.7891831415
83334.0651468016
83333.2511996595
83333.9718379671
83336.3489421952
83337.347573874
83335.7536440702
83336.7783312876
83336.5417556076
83334.2726790571
83338.1011458386
83357.63503257
83350.3651205033
83363.3118708822
83368.0352785465
83378.0527831505
83371.921875615
83363.7905396112
83352.8127151588
83365.9666413404
83379.2242565673
83379.8199798554
83365.3331112326
83359.7916149357
83358.5441593395
83379.3913634334
83380.9859974541
83393.9338588058
83392.693068788
83393.4803469761
83394.919509733
83395.534862894
83394.6446983714
83402.2357802897
83402.6257245786
83403.9450905819
83403.561655001
83406.0418737866
83406.695771619
83401.4574945848
83400.0979361244
83402.6581345813
83404.2270584771
83395.6952051416
83388.430688025
83396.6490367297
83405.224703507
83423.440981158
83446.0368253089
83418.4636840561
83424.3603870901
83444.1442588264
83457.507855637
83421.2599922835
83416.721676099
83423.2167150883
83433.1015842114
83416.0073694727
83417.0852491292
83414.0612294363
83413.8860870363
83413.6138909585
83412.4668582626
83394.2336412447
83395.0643363326
83396.1758538464
83396.3854301884
83405.5110796313
83404.6839561789
83414.1887381392
83414.589055308
83431.6684682844
83431.0984978096
83454.6589771876
83455.5557929216
83494.0948736382
83495.1094520017
83551.4810334777
83549.2699533719
83609.5558558165
83609.849898524
83669.897264578
83671.3373829648
83709.0330924216
83706.0334170271
83724.9795000122
83728.1025952571
83721.4733921795
83718.5300701973
83684.3923943023
83686.9858808232
83637.6894950135
83637.2982854175
83571.0251605814
83569.446000048
83510.0268836689
83511.9111519172
83460.3312436755
83460.3299939955
83426.8142590265
83425.9486076862
83405.5454604892
83406.4528528659
83381.7725092897
83381.0724823294
83347.4106604144
83347.5745980656
83310.892870448
83311.7868899767
83316.0323837432
83315.842147536
83290.6835515663
83290.3163592396
83293.7412317939
83294.4995539033
83303.1978567993
83307.0730245446
83306.3207824262
83302.496758465
83276.3622879774
83282.1495402509
83284.8433453354
83278.3567274865
83282.8362934526
83288.9504689775
83310.6412820745
83306.42002868
83310.3191244733
83314.3167634227
83319.0607695863
83314.144727584
83316.9393287052
83326.7417740523
83325.3225531339
83316.4256156048
83338.0063662783
83338.1148091111
83334.0060072563
83336.7460071244
83334.1280490988
83330.0074380044
83320.8077879482
83322.4775789949
83325.061741071
83326.6415117947
83357.6916646343
83357.9067571613
83379.8408616793
83379.3286124079
83384.1186644047
83387.2380364112
83389.4172613554
83382.2399317343
83380.3482874786
83381.5261079386
83382.640539146
83384.5378105534
83383.2972727335
83387.9008647775
83391.202457315
83372.0957573737
83374.1706361151
83388.3220793146
83384.2097387246
83389.1908296886
83391.3202777432
83398.3614320411
83392.9173198889
83399.2327387691
83399.0738664368
83403.8501875412
83406.9042308105
83378.7286105113
83383.5404433717
83384.3066211304
83380.9542459705
83381.2081143344
83383.6977854256
83399.3389446288
83397.5541119732
83376.1220379927
83371.7456453223
83373.1100656103
83373.8550111636
83374.1879690055
83373.7214415315
83381.0411654828
83380.8062316211
83387.1923924701
83387.9002849927
83401.0966156953
83400.7141068998
83425.6675374544
83425.3895213185
83443.8216759309
83440.389281688
83448.3855566995
83451.3844086596
83476.276850687
83474.8502116092
83503.8833789805
83505.2404521409
83539.3849243151
83538.4465813107
83583.4243330573
83584.6099055917
83628.5446662727
83627.8647127021
83669.6957655244
83670.9893729664
83708.1744694965
83707.284135204
83737.7471217418
83738.964060206
83755.6413782111
83755.5583617054
83768.5091958295
83768.6353958427
83775.3595579507
83774.9171624749
83769.5590808199
83769.9924078995
83754.2106245528
83753.5403117137
83730.8619780511
83731.2872448923
83703.6537686774
83702.4596091911
83663.6925981755
83664.4048533473
83620.5460889848
83619.4135910411
83573.9131739423
83575.0425599086
83532.0758634528
83531.1185995902
83490.9726728355
83491.8082015344
83462.2462361978
83460.9120723784
83439.0083834226
83440.1317378572
83418.6466050781
83416.3508111566
83408.2663158813
83411.1146287617
83418.0684488661
83416.6262789769
83456.4309912239
83456.3838273394
83475.6744433016
83475.7423682763
83510.1622824054
83509.7658929372
83541.0708297642
83541.9195315856
83586.2743529658
83586.6407300899
83620.4512187518
83621.1250013269
83667.4129921263
83667.7617906387
83694.8541453251
83694.486268715
83720.3274870139
83721.9058484037
83739.0802099823
83738.6066047654
83757.9454551162
83759.7375825319
83763.3834270292
83761.9326601284
83751.06884723
83752.3381051065
83742.5764727034
83740.0981850589
83727.1698405927
83727.7959731212
83706.629282313
83705.9097155564
83665.5777289493
83665.0064663486
83634.3506679178
83634.2924823848
83590.0784803046
83589.1062206951
83555.5968108987
83556.0407270373
83516.9181668499
83517.1409808815
83492.4643838773
83491.7881282848
83448.8917940577
83451.8078112127
83450.0363803285
83454.4667979743
83452.0617766998
83450.7666181766
83445.7110023432
83431.6557443381
83410.4785056786
83386.2383578758
83371.4384287142
83368.9027940809
83377.4703591165
83366.1498363529
83361.278421671
83360.737738811
83363.2138768904
83363.403646742
83323.8539163977
83326.3415315995
83324.1261443557
83322.7806459034
83333.4502072892
83327.9502260748
83369.1242954181
83363.3498644454
83367.5686607978
83372.1477568291
83373.4026030913
83369.4353143136
83374.3084924455
83379.6881715943
83340.4981378433
83336.4039700782
83337.7614688784
83342.4554039836
83342.1380008672
83338.7428706685
83334.0287256385
83336.4009521566
83354.5166018912
83350.0190919294
83347.0046439912
83348.7518332541
83347.954859929
83346.6428705655
83350.2519530823
83350.3937678334
83352.0040482419
83350.7909875985
83356.717373553
83357.7987460416
83364.5892150368
83361.3300898347
83364.2168158413
83367.0114431338
83381.3539705916
83380.6926312052
83396.9829442151
83396.7664761309
83416.8098702171
83416.5432616703
83444.1794443228
83445.730081091
83484.2826358188
83482.4885293754
83536.6541319575
83539.8729159575
83596.8404739466
83592.7247217741
83646.3126481045
83651.3956215051
83693.8103474623
83688.3063007144
83722.9038686951
83728.6298016626
83748.1939476173
83742.302928522
83755.7808258258
83761.5775273238
83764.6727312067
83758.9854566576
83753.4910846713
83759.1074018719
83746.845047851
83741.1489322967
83715.7058080526
83721.5607393019
83688.6951133342
83683.1257857043
83636.4081034649
83641.2269983752
83586.787122219
83582.8836875298
83524.2459022645
83526.7430526015
83474.5268755734
83472.9173002101
83431.5855771453
83432.256639101
83405.8166098281
83405.2664848699
83387.588746377
83387.6577391457
83375.5532509447
83375.4623519153
83369.2587494544
83371.0456505179
83398.6977308246
83395.6124610973
83394.784373244
83396.3405184789
83349.0982310767
83347.9233049831
83299.2467865789
83297.2763552108
83248.8970563502
83252.5288511777
83277.3932609654
83275.9599790893
83249.1886990749
83250.2579820648
83265.6780368626
83266.330847418
83252.5522136996
83250.8136721177
83262.7871816829
83264.3902852675
83249.6188594176
83247.877393318
83260.389734388
83265.9471152198
83269.5312974954
83262.97366999
83267.5947036711
83274.7184819
83278.5390778172
83272.953926056
83274.9534033985
83276.7138791529
83294.9599407738
83290.1856728918
83292.1063998047
83299.3040051084
83299.0312365681
83294.0172792336
83294.4542396659
83295.316470933
83315.4223209596
83313.1856682957
83311.3124142256
83309.1318132872
83305.0518454812
83311.9741838193
83296.8631260478
83287.6074984694
83287.2572412448
83290.9353497667
83295.1859386648
83298.8403912857
83295.9226385939
83293.8520868153
83289.614240881
83293.5948137682
83327.4579065077
83325.9128296613
83326.5384675158
83328.1560270736
83359.6546472831
83361.3242626146
83368.3198165736
83322.3963530202
83321.9716270644
83325.7936154318
83327.7016258301
83290.5534363161
83287.3611457015
83283.8817579629
83287.3549771982
83278.2705896399
83275.9857229786
83281.7068540005
83276.6986231316
83314.4688716073
83306.2436760204
83307.341016456
83311.244849046
83333.7915971247
83334.3933203081
83334.9504982767
83337.7223576263
83305.8631802505
83303.206414725
83298.1578795106
83302.1646924413
83298.260020229
83292.8499828619
83290.300561978
83294.990486238
83286.6754514158
83282.2750557999
83292.8239611819
83299.7061258044
83291.0239333052
83289.2326346454
83286.87163325
83287.2091834246
83280.749105596
83280.9966522101
83271.4631993721
83271.1711690575
83256.3315091169
83257.8136629942
83255.5466877971
83255.2063116293
83242.6331046684
83243.8457837926
83228.1977247836
83227.9425725516
83202.7706384494
83203.998012032
83180.2062208484
83178.6546691276
83169.8351811372
83170.1315084049
83154.8978118094
83152.6109603986
83136.6019827594
83139.171863707
83131.1031143842
83127.1196180749
83127.7438881223
83131.6675775239
83133.8768360104
83128.9112697964
83131.1958450117
83136.4282619651
83138.3917929447
83132.4304940149
83130.268552509
83136.6653933709
83134.9058630663
83128.275975344
83122.1514127445
83129.2890119746
83125.0518504909
83117.7599006262
83110.1536801571
83117.6713207844
83114.6708239942
83106.839386028
83100.2791536963
83108.0367474297
83105.0983541639
83097.2019444892
83092.1706762196
83099.8406750392
83099.1386793851
83091.0227614651
83088.3997788336
83096.5320542413
83095.4828687751
83087.722348971
83089.8683710963
83097.6893787069
83098.851534012
83090.7925096699
83095.0858979565
83103.0953141248
83104.4977462624
83096.8729652642
83102.9568475158
83110.8331876405
83113.839068457
83106.3230937936
83112.6799052396
83120.0315722103
83122.6521176549
83115.555973219
83120.5788314687
83127.2047906377
83128.2457691715
83121.946901969
83123.1250077111
83129.0219004992
83126.5288420804
83121.2616989142
83119.1022442359
83124.0689447175
83121.9092781226
83117.9235431042
83117.305971308
83121.3813583224
83131.5890168019
83128.9711408607
83147.1697280856
83149.4302915734
83166.9159680753
83166.7775586872
83177.5595126619
83179.0529397058
83208.0051970996
83207.315993308
83226.4135896981
83228.9118228063
83246.8569435124
83244.6660585843
83273.7307936735
83275.1925751968
83309.1357411077
83308.3384772254
83340.362219588
83340.0356490703
83342.3752824786
83342.0834211719
83304.4276252447
83305.0064585697
83266.2345649428
83264.6500263504
83254.634415547
83255.2828767962
83243.1098714175
83241.553957675
83200.1802322469
83198.6444659028
83192.8299106098
83192.8951314182
83182.1739480148
83183.158065756
83182.022556069
83180.4078096264
83189.4534047348
83190.5821085068
83203.7024730254
83203.1049157119
83213.5534802265
83214.9400177229
83226.7116660779
83225.3497125815
83231.2220420761
83233.7400194877
83240.5309269824
83238.1441288707
83239.6199524606
83242.980938519
83247.4676438289
83244.3171708519
83242.7941010984
83246.0937574425
83247.0221619751
83243.4677758591
83241.6823939794
83243.8693560947
83248.60397876
83245.5026186146
83243.818260489
83247.429939549
83243.9713687376
83241.1525917737
83240.2015902222
83242.7498317656
83248.3546762244
83244.7846270674
83246.4969873496
83249.7893310604
83244.8060720549
83242.5824593988
83244.6963576956
83247.7950311239
83249.8086188982
83246.7667850988
83249.6974711902
83253.1080615561
83249.588621689
83246.4957769283
83248.4498207468
83251.527555649
83250.3672559555
83246.8532148049
83246.8007817976
83249.3546241463
83243.1422533994
83240.3013248753
83235.2610652732
83236.8907129988
83225.2329235881
83223.6374284815
83213.4553072752
83214.1636897029
83201.6250988068
83200.3265234025
83191.3572386033
83192.4699005416
83191.6544322201
83191.1210308245
83199.6604931855
83199.5178804946
83204.0991268624
83205.4804024633
83246.8613643677
83248.2688931648
83250.1381289431
83248.4479318406
83255.2684785283
83255.9246567232
83258.6050419387
83255.7024743185
83266.293146835
83267.3809471003
83285.1664209934
83281.9712705021
83306.0157995447
83305.9503959886
83326.6057408926
83324.2210055314
83346.5697179791
83346.290082489
83361.8977592112
83359.5038211525
83373.9389277852
83374.6932327238
83383.5395384753
83380.8392223297
83386.4521557369
83388.3220318893
83393.7370720752
83391.1082239183
83400.5992101497
83403.3350739299
83404.348403042
83401.2727931999
83397.3724302404
83400.9212437293
83401.9026405368
83398.4662232361
83409.2373168238
83413.1045473723
83412.7239560364
83408.4509249121
83397.0556204837
83400.895469344
83400.3675812749
83396.5972164672
83404.3483330628
83408.697235267
83406.7391962449
83403.4044174619
83393.6272871759
83396.1688394969
83393.6595974625
83390.543967401
83387.995036388
83390.7139858456
83385.9319261784
83384.282620691
83372.6037598271
83375.4107644225
83364.4490277673
83363.7496396504
83349.2971979722
83351.6064682617
83335.6226405902
83335.9317365683
83314.3008619784
83316.4236227142
83295.1363110978
83295.2392685897
83269.6394833734
83272.9815699077
83256.3104991265
83254.763352374
83245.9615377315
83248.9673808133
83247.3711326126
83246.7008344091
83241.9016192537
83243.6036439315
83309.8897285969
83307.2249176595
83303.4335848686
83304.8234254596
83303.9380330193
83303.5584992523
83348.8465766116
83349.0556015626
83359.202758688
83358.4920823547
83377.7276590205
83378.925508593
83416.1319606798
83415.4308623267
83333.1195319533
83336.5900079249
83385.695520754
83382.5561753935
83442.8392844802
83444.9112611986
83493.9227126017
83491.97195108
83528.9870599633
83531.3132585128
83554.2544470277
83551.6815684376
83568.6821541918
83571.8454976344
83577.1408192906
83574.4857549733
83577.8716017898
83580.6169391798
83580.4153095671
83577.5358127286
83569.4610375374
83571.9338824615
83561.5985389098
83558.8241486251
83535.1478652516
83537.4931670486
83504.5011607966
83502.4786340469
83454.2062794308
83456.2993040798
83398.5714340747
83395.5820570953
83344.4087556245
83347.9787776685
83320.5408674194
83317.9057554872
83313.9246924689
83315.0427950945
83308.5401388282
83308.2947486157
83253.9720043519
83255.1126647887
83267.0274975984
83266.7282517155
83275.8767264939
83276.7606172596
83282.9882945368
83282.821785038
83304.8189328302
83304.3818653977
83312.422441026
83313.385842518
83310.2462108136
83310.4073903011
83308.7099831938
83308.8344807065
83349.2465791753
83348.2317270175
83357.1436030979
83357.1847778597
83369.7045018594
83370.0972688569
83391.0019792494
83390.211688461
83427.3057466599
83427.8072076625
83482.1365411933
83483.2555318306
83544.526578566
83541.9434562962
83596.7672013754
83600.1129938261
83641.2897788712
83637.4986791105
83669.153955417
83673.0688947492
83690.0211824071
83686.0015201372
83698.0158725666
83701.8746281471
83703.9225362356
83700.1002391028
83695.1574308137
83698.9724563028
83688.8525205066
83684.996870157
83661.7922239505
83665.81824464
83635.2801273233
83631.5514112435
83586.0715341417
83589.4944670228
83533.2099342248
83530.8411879266
83469.0256753811
83469.6598221769
83476.3510854824
83484.2493373668
83494.8081905686
83511.0287062189
83522.1171193675
83515.6875432922
83502.6225769571
83492.4157190578
83477.8768087689
83464.8600666061
83455.7727279613
83447.6755540526
83445.3523173152
83443.4585507904
83446.5891259031
83448.3184913364
83455.4494673313
83463.8359659466
83472.358810882
83478.7652068235
83477.5424681624
83470.3803302536
83447.4561062639
83407.2336417049
83377.4203523846
83356.799574021
83270.7711596234
83268.9331220174
83267.2400941958
83324.1558411907
83313.4591742116
83321.7374720453
83275.3105797634
83270.6423948187
83287.4483939481
83292.2680681152
83272.9401733994
83270.7094998615
83271.4034390349
83272.8974051556
83260.8349439861
83265.7128179716
83256.5276770154
83236.301433194
83242.7342348122
83256.7421947975
83265.9797191417
83274.5366129255
83269.3797965264
83266.4392431131
83281.5305154663
83280.6713395468
83278.8659176453
83276.8203493901
83269.2542790921
83272.5508633551
83264.3077897262
83259.5813392091
83252.9441496079
83257.7459810555
83248.580834408
83244.6019141295
83248.1156223528
83255.7817866263
83246.923772998
83243.7075225298
83240.8553057864
83243.1229811742
83232.758108403
83231.6741991326
83221.3664923168
83221.5582568478
83200.4605597992
83201.3502165958
83187.1546104921
83188.061338087
83169.2943310603
83170.268148353
83153.5679552353
83153.9671834651
83129.3785810263
83129.1811070275
83102.5758337081
83103.5001835535
83093.364559044
83092.8445475405
83091.2629584495
83090.447719424
83094.2478882094
83095.839792568
83130.8919798106
83129.5622278393
83230.0775619086
83231.2537432317
83366.7711250983
83369.7153735137
83425.1043441149
83421.5910637948
83365.2079061923
83365.1611476786
83229.9842890029
83229.315932685
83124.6029505893
83125.7927052386
83050.7205706063
83050.2347952195
82996.3239568562
82996.4749696892
82955.9595895776
82955.9137072696
82927.4577770659
82927.4763037387
82904.2267991702
82904.2945892121
82889.5733575232
82889.3757995315
82876.9008191077
82877.0757541051
82870.2055274287
82870.0313374143
82865.5655649443
82865.8048821578
82865.1942348091
82864.9672179964
82868.7045803621
82868.9165802599
82874.4448494543
82874.2244859354
82885.9743594651
82886.1577719969
82900.0056553952
82899.8631951442
82922.0419009164
82922.1318769115
82949.952786564
82949.9880837737
82989.8316752187
82989.4677571334
83043.5309583401
83044.2994865505
83120.1081177587
83118.6953528792
83225.2620134792
83226.2697782942
83362.8210887777
83363.1321968303
83416.1994760389
83419.5674154001
83359.4735281183
83356.9285679282
83221.7251334988
83220.1049688419
83122.5675459167
83124.400082316
83093.2240117682
83091.5413114717
83089.8780833977
83090.9875354015
83095.6266469654
83095.993078135
83107.9007603431
83107.2705255128
83139.3795824815
83139.9975407089
83156.3954492955
83157.8966611665
83179.9102750158
83180.902092162
83184.7232688921
83184.9471911699
83201.1452643697
83200.650178471
83216.3092941441
83217.3334306412
83198.8389755122
83196.3598211107
83175.8687382439
83178.3242492481
83165.3249871718
83163.0129727913
83145.1531224031
83145.1805898482
83113.3759615606
83113.3283886972
83100.2716732291