/*--------------------------------*- C++ -*----------------------------------*\
| =========                 |                                                 |
| \\      /  F ield         | OpenFOAM: The Open Source CFD Toolbox           |
|  \\    /   O peration     | Version:  2312                                  |
|   \\  /    A nd           | Website:  www.openfoam.com                      |
|    \\/     M anipulation  |                                                 |
\*---------------------------------------------------------------------------*/
FoamFile
{
    version     2.0;
    format      ascii;
    arch        "LSB;label=32;scalar=64";
    class       volScalarField;
    location    "1100";
    object      k;
}
// * * * * * * * * * * * * * * * * * * * * * * * * * * * * * * * * * * * * * //

dimensions      [0 2 -2 0 0 0 0];

internalField   nonuniform List<scalar> 
207032
(
0.0157618712246501
0.0167961004094783
0.0219875036177103
0.0209310759825744
0.0164763685171746
0.0163987463451256
0.0205332442520685
0.0198798008459156
0.0195109744449157
0.0156667938473929
0.0160019646309225
0.0154895034511711
0.0153165143033125
0.0153811906960695
0.0155489961813137
0.0161353992352569
0.0207216200366986
0.0205280799866304
0.0157371478379749
0.0158301962578015
0.02186530832948
0.0218088882089164
0.0162939046627676
0.015631972108191
0.0154429704852634
0.0155156417282297
0.0157279916839284
0.0165271335513478
0.0229434821769434
0.0230973870392826
0.0159823741769959
0.016829270424845
0.0242154800967673
0.0240202938645239
0.0173594772979264
0.0173438585883376
0.0247593285270763
0.0233477696281412
0.0169337835536535
0.0170334812825681
0.0230868977237157
0.0223087147676634
0.017093506711169
0.0169634195473998
0.020707308123032
0.0194003493019163
0.0165805639361625
0.0160014017733982
0.0184433219004017
0.0170955691181846
0.0154593806027849
0.0151585877665468
0.0163352310193995
0.0157529012181784
0.0153139956441287
0.0150257861972944
0.0150622561685232
0.0150487546355053
0.0150141967775393
0.0150104675826752
0.0150068857582631
0.0150209055382618
0.0150425417421036
0.0150806562526062
0.0150462816421975
0.015157387237201
0.0163774704720674
0.0164072603565091
0.0151733391821962
0.015055811006817
0.01504245447271
0.0156348906601528
0.0157167442953894
0.0153049614852053
0.0153151788557724
0.0150205610559228
0.0150220947489454
0.0153518026147275
0.0171368296789887
0.0170256864593718
0.0152768210566522
0.0150893094377653
0.0151442475230408
0.015158387602205
0.0150978064759355
0.0153752362522371
0.0156016323551949
0.0156202021173631
0.0153897589830729
0.0152670729386325
0.0154094492001626
0.015177020195846
0.0151112174534412
0.0150777696971288
0.0151146655037233
0.0151933464977538
0.0151285137585189
0.0151791917140962
0.0152431524813126
0.015288466674874
0.0152323938529604
0.0152892575682161
0.0153559426301729
0.0154808205719726
0.0153628667901576
0.0156933328126859
0.0159886077361517
0.0163550328716753
0.016106531084849
0.0174187980798325
0.025670032390214
0.0253539424846105
0.0178643015490976
0.0180155932593556
0.0259588203241077
0.0252796028531407
0.0175776497847655
0.0178955075387498
0.0261740986926734
0.0269916597283615
0.0181227357985485
0.018258805226616
0.0265713767937286
0.0268057059005
0.0184034270480004
0.0181344814284781
0.0273412224297499
0.0300875125449139
0.0195044011692403
0.0192228968212607
0.0290581777074309
0.0285365335421918
0.0185522597384519
0.0183662894400006
0.0303877377292578
0.029315617009654
0.0176894970965977
0.0172661689093864
0.0263663589600903
0.0242387645842979
0.0171395617435561
0.0167650338370925
0.0232767210159206
0.0217035080860022
0.016690699898407
0.0165092471821726
0.0203857783622927
0.0191282948704896
0.0161765316557532
0.0164380003896554
0.0202472474855373
0.0181784128084361
0.0158001025222767
0.0154920518942536
0.0171666838419465
0.0164044982437792
0.0152255706886207
0.0150576694331937
0.0150234709525654
0.0153197462258278
0.0158162702871667
0.0158129967740325
0.015285012571803
0.015010414917329
0.0150322243699218
0.0150185884947215
0.0150071927990287
0.0150120214170692
0.0150339965749854
0.0150384856825038
0.0151231409422362
0.0150924612520447
0.0151789051187442
0.0163975816332076
0.0164203124301879
0.0151142059132116
0.015015178777365
0.0150033141308776
0.0152869459238754
0.015816960933875
0.0159095671116745
0.0153427517652722
0.0150009885443541
0.0150115676013152
0.0150062987779573
0.0150037266283864
0.015001806734964
0.0150037419458655
0.0150080293582132
0.0150030739458965
0.0150046848484177
0.0150159526609152
0.0150104647763785
0.0150040482457298
0.015002648152346
0.0150036548014583
0.0150007366011436
0.0150004748250423
0.0150010928302195
0.0150024430506056
0.0150057245124019
0.0150025141578283
0.0150068448970712
0.0150179875590258
0.0150590082228844
0.0150298100186306
0.0150142223100948
0.0150235824536972
0.0150649785412141
0.0150468105402298
0.0150709623603015
0.015088560596449
0.0151206577661836
0.0151056622026315
0.0151421922543508
0.0151758249094041
0.0152163898076881
0.0151816440568397
0.0152268768622651
0.0152625475442951
0.0152782493038058
0.0152419452241478
0.0152986619838012
0.0153510958261978
0.0153704380468349
0.015317130359976
0.0154557405267566
0.0155963722916777
0.0156362422371892
0.0155170548564849
0.0161646226692546
0.0163876334495316
0.0163733344077453
0.0161634512463129
0.0179795041835781
0.0181429743996578
0.0182728717518732
0.018302966954872
0.0181267138391938
0.0181070372829092
0.0192372141410374
0.0306317922056237
0.0315722374930586
0.0194715841808026
0.0196237868334369
0.035052421138336
0.0332712879437678
0.0194318936191292
0.0186556498158768
0.0320880216763984
0.0304295913751096
0.0185421396481302
0.0166985449495779
0.0160869857801447
0.0159318118084727
0.0158925441396694
0.0158396325377299
0.0159639076192608
0.0159730181929114
0.0162830089697807
0.0256614816599383
0.0242207636513622
0.016199087337971
0.0161532540187747
0.0229096790137002
0.0216679260709765
0.0161313808052211
0.0160857420695361
0.0203386764192491
0.0203442677614865
0.0160671648643333
0.0161552550402296
0.0196495661551978
0.0181937112229173
0.0156976087723333
0.0153847362178793
0.017165733751319
0.0171908834527612
0.01524294379659
0.0153714633015506
0.0174192895325901
0.0165754957855172
0.0151585907353127
0.0151338696217383
0.0166614175387462
0.0159604059403773
0.0153731550151542
0.0150032601278308
0.0150099533420072
0.015006601281685
0.0150029623130665
0.0150016710535501
0.0150036770845984
0.0150037655857253
0.0150016596215719
0.015001614885505
0.0150041405291318
0.0150047219177349
0.0150015617790072
0.0150008237989222
0.0150043753191277
0.0150023093534566
0.0150016661387194
0.0149996651491589
0.014999767619154
0.014999545242177
0.0149989931242505
0.0150016560380676
0.015004403405841
0.0150185665945917
0.0150103578904023
0.0150073469877735
0.015009732758426
0.015031096421368
0.0150222770424462
0.0150568675157263
0.0150749630804086
0.0150947219165018
0.0150808427027983
0.015113418064184
0.0151235248001721
0.0151130795276644
0.0151020419382884
0.015135161200682
0.0151452465858908
0.0151560434879974
0.0151407457718987
0.0151752646666564
0.0151892900517158
0.0152077980315468
0.015192902732681
0.0152438855845098
0.0152787822506263
0.0153001240879835
0.0152657167290448
0.0152858359368441
0.0153200484798457
0.0153398549193265
0.0153059976347057
0.0153688189210924
0.0154297084139648
0.015449596849472
0.0153907296677046
0.0154803173514319
0.0156068228212826
0.0156204477629546
0.0155046447672828
0.0155564923326626
0.0156609582539533
0.0164277122965355
0.0162304734110093
0.0162193891293106
0.0164119243007436
0.0165625632088404
0.0163923223264257
0.0182360844905442
0.0181925789413324
0.0186363021876643
0.0187412475920262
0.0208598823767442
0.0200688491013803
0.0356812598929653
0.0379115107132528
0.0429883329142418
0.0392401361012311
0.0201303633471042
0.0214761581432436
0.0189338186211257
0.0193196337189482
0.0193260865519687
0.0189617194952363
0.0214007713723203
0.0202309245224484
0.0419558838173756
0.0458004355798097
0.0440573114990117
0.020865485248448
0.0201145386425824
0.041705345841779
0.043298322796832
0.0201307676255763
0.0202114449227073
0.043644443341963
0.0390563845610423
0.0202224809680043
0.0202300239123628
0.0398090522048343
0.0364000175537216
0.0202198987427925
0.0193896784960692
0.0360053223784067
0.0339088335305384
0.0190335519392975
0.0197338342347605
0.0340822805996006
0.0339242204957592
0.0195491432727119
0.0179943291987309
0.0298298052026247
0.0272772249307107
0.0172357899338581
0.016862011455975
0.0250485843980326
0.0244711091582394
0.0166556830300555
0.0166294998072071
0.0228750377772996
0.0214099848385342
0.0165941464674669
0.016576752697959
0.0214819164239183
0.0223921127713637
0.0164451840508281
0.0163365956640689
0.0205617303137127
0.0220308869848734
0.0163449718477302
0.0161344695274991
0.0215266349182269
0.0228200783071389
0.0161542492439062
0.0161793500597691
0.0243327890488242
0.0260459010537309
0.0162370048547482
0.0163102461829713
0.0280186824642243
0.0270682048386076
0.0166809005542225
0.0178633203057703
0.0286572473456568
0.0252424550780431
0.0162155649683844
0.0161012205064532
0.0226496925896933
0.0202099215749972
0.0160350557843905
0.0156185266740245
0.0185569625932867
0.0186634295750222
0.0154507321545057
0.0153333143090376
0.0175281665140844
0.0173192926625362
0.0151288207756024
0.0150602036490717
0.0165549520334984
0.0159013137460483
0.015340731702422
0.0150016303024175
0.0150071249810199
0.0150113467083729
0.015002571277302
0.0153398149470398
0.0158978741264569
0.0165496878429
0.0150680892939407
0.0151451599463135
0.0166561633653666
0.0159570527142281
0.0153704870429097
0.015004750218546
0.0150090243403554
0.0150087981717113
0.0150033727932656
0.0150028005349571
0.0150062387344626
0.0150048438681458
0.015001809658677
0.0150015716280914
0.0150051319909672
0.0150066328340403
0.0150016988097003
0.0150014148064635
0.0150115543307113
0.015043425640848
0.0150089176808682
0.0150050098716183
0.0150021646879854
0.0150179690680732
0.0150368804360519
0.0150769414832378
0.0150453919325683
0.0151035667708238
0.0151684001074873
0.0150694947067335
0.0150395049759406
0.0150895565619702
0.0151295392647378
0.0151549935648641
0.0151197569037181
0.0151598623283645
0.0151945891976235
0.015131746962346
0.01511849442567
0.0151538125347355
0.015166486052676
0.0151557355383431
0.0151466947396442
0.0151776804489096
0.0151867723711226
0.0151779097808345
0.0151690473299122
0.0151849835631689
0.0151947194904591
0.0152055555275775
0.015191221540048
0.0152099568121729
0.0152239142190766
0.0152266298038579
0.0152122387030188
0.0152312385989474
0.0152456104451165
0.0152651533876989
0.015250707238735
0.0152700509389845
0.01528499037922
0.0153585011817292
0.0153253797924956
0.0153423672455161
0.0153745254077503
0.0154656300695591
0.0154103767002366
0.0154292689456475
0.0154816218868668
0.0156336073637325
0.0155274097230351
0.0156116964148592
0.0156888979701309
0.0164845891765919
0.0163107702773848
0.0165167364215853
0.016631509946759
0.0172259852390933
0.0170546398419443
0.0171274382689766
0.0172838725701666
0.018954046442856
0.0186442369418945
0.0186032514837376
0.0187512987039524
0.0200808631561218
0.0439906839696667
0.0468736514689071
0.0207002419599409
0.0207156570140679
0.0510653718924073
0.0476722515127989
0.0201132715963789
0.0200412282269993
0.0490369103222299
0.045400540169079
0.0200500339520102
0.0202219723599004
0.0422013923492671
0.0437526243603032
0.0202731179186167
0.019857206390076
0.0394788805573275
0.0364861782644396
0.0197754090267728
0.0197413323685083
0.0356881430687442
0.0337511417952801
0.0195222347901558
0.0192447268341728
0.0310776189939512
0.0283916218987089
0.0175929304664507
0.0167842886142977
0.0263120152771677
0.0265489444902606
0.0167166047598263
0.0166515043767346
0.0247118971402265
0.0230705245420036
0.0166093716023859
0.0164739921292377
0.0242598361216147
0.0235884148471463
0.016362598235327
0.0163976482884421
0.0254278416561961
0.0276013950796713
0.0164572920413816
0.0165365206353025
0.0301314887268785
0.0330488062219065
0.0166850565406916
0.016858514372894
0.0305187809252203
0.0290360524852421
0.0175854365936538
0.0182623132996871
0.0300070555011022
0.0318621473270566
0.0183487242936188
0.0182202204859692
0.0305846288929592
0.0296784047571693
0.0172602346015441
0.0167334293980814
0.0260608530547549
0.023784603826032
0.0159073562760308
0.0157695641982077
0.0217791430724981
0.0200771041939131
0.0155971185733003
0.0153856530823495
0.0193184096266997
0.0182306956636058
0.0152166161265041
0.0152755626487717
0.0182184476765362
0.0173128919349751
0.0151358308749236
0.0153548476608347
0.0175183799953275
0.017408462348825
0.0154458774057703
0.0152671707219796
0.0171650520626601
0.0171483503220835
0.0153698206497838
0.0151671184831199
0.0163892708002733
0.0158087682080177
0.0152825181220551
0.0150062348968036
0.015026149883185
0.0150135659767334
0.0150039510170486
0.015008585700684
0.0150306830377638
0.0150513322515563
0.0158154721086386
0.0153167900415945
0.0150170757246444
0.0150270911212129
0.0153126238799789
0.0157543232511263
0.015062545679984
0.0152643813234514
0.016340126265178
0.0164223374550779
0.015251313936638
0.0151625956036845
0.0163711091092141
0.0170316969528004
0.0172044802998355
0.0155180261591832
0.0153560929403295
0.0156534551057903
0.0157846022972971
0.0184722952050169
0.0180769762067299
0.0186945571962838
0.0191391986347412
0.0158669293958015
0.0156499608960081
0.0153997718672223
0.0156101680379437
0.0155899467841131
0.0153856514718462
0.0151147896422166
0.0151847284207127
0.0152091037593047
0.0151315704467423
0.0152781251933814
0.0154129961325965
0.0154869036481492
0.0153282242590303
0.0154033622042299
0.0155647058530627
0.0152709562604857
0.0152112924959753
0.0152838170596774
0.0153385595169879
0.0152384095023914
0.0152034781969983
0.0152512488591254
0.0152816657875671
0.0151981737049776
0.0151854575871926
0.0152340870918628
0.0152438915602514
0.0152210400028941
0.0152130292769887
0.0151823978672686
0.015192645049449
0.0152138125697283
0.0152056462036608
0.0152036849562019
0.0152131060035844
0.0152322543364326
0.0152228787337897
0.0152290796338031
0.0152429523471612
0.015262581899159
0.0152486819127801
0.0152681528017747
0.0152825417718247
0.0153024260297962
0.0152860884735514
0.0152877565070104
0.0153046034140266
0.0153251586052113
0.0153060217656154
0.0153592951214931
0.015390947202873
0.0153973352163914
0.0153693544906184
0.0153830362078525
0.0154088893571878
0.0154906070549074
0.0154478139400631
0.0154568852284915
0.01550065807971
0.0156360035861309
0.0155487976831375
0.0155631130532651
0.0156533714945614
0.015704288929981
0.0156340332222403
0.0156523435728469
0.0157092152865121
0.0157122089125718
0.0157265373816097
0.0156213861021885
0.0156928163983876
0.01569110805554
0.0156176009239804
0.0155404339829937
0.0156376882021235
0.0156291694465966
0.0155342670469504
0.0154405570960894
0.0154876534981204
0.0154827878308613
0.0154364846372361
0.0154902904056453
0.0155237457899572
0.0155320452795881
0.0155343536078121
0.0155340267282102
0.0155079578873056
0.0155063795484608
0.0155022583388998
0.015500171110258
0.0155146823026403
0.0155137333400827
0.0155372697965012
0.0154441602568
0.0154339784604393
0.0154309547731788
0.0154347388961521
0.0154452281404097
0.015439539484789
0.0163868606927434
0.0238993319508374
0.0221395368332076
0.0156830733382054
0.0154976030900383
0.0206344690391663
0.0207470725820725
0.0156430633306597
0.0155442364018469
0.0193269763530398
0.0200144268667497
0.0159657557701739
0.0155527504136973
0.0186347774342745
0.0185944766186829
0.0157184715570269
0.015500216480407
0.0181357317504579
0.0181578688102167
0.0156529690867895
0.0157791968135419
0.0182242767022787
0.0186384006528983
0.0159816914452614
0.0166027893870352
0.019643887772643
0.0203498283345938
0.0166705302114752
0.0164667698708288
0.0207286979337393
0.0211441346847236
0.0166178026287853
0.0162576985578042
0.0158609725535133
0.020525527240189
0.0209129686901505
0.0200664868041911
0.0159746354898169
0.0156912917474028
0.0195988271928693
0.0220661336045713
0.0217252872605363
0.016269219871792
0.0166416063334793
0.0157283471621045
0.015522968617792
0.0157860276133269
0.0160249989664742
0.0154428341543973
0.0153848674829962
0.0154138849370292
0.0154701978093887
0.0153065125322428
0.0152754680492917
0.0152672999992028
0.0152986675652861
0.0153063628488576
0.0152781657309604
0.0152999208166381
0.0153280798142545
0.0152648767208893
0.0152517332650122
0.0152523279458263
0.0152631309722425
0.0152398100238218
0.0152306316831888
0.0152299175206259
0.0152393571592482
0.0152328745104113
0.0152247955492591
0.0152450586072661
0.0152531560885084
0.0152521854797452
0.0152427861408492
0.015262741594761
0.0152728724996658
0.0152941028510958
0.0152813012217267
0.0153007513438933
0.0153166501105713
0.015323389299389
0.0153047083201331
0.0153146373237563
0.0153306310659522
0.0153422898767529
0.0153279952087915
0.0153290250494824
0.0153436416791506
0.0153434754872512
0.0153286957309567
0.0153767506695649
0.0154019181859791
0.0154111459950072
0.0153879165473508
0.0153972373440208
0.0154215846650468
0.0154997264635947
0.0154601740547523
0.0154736075843917
0.01551479078484
0.0156448728864303
0.015564480626273
0.0155849056504237
0.0156708149087703
0.0157215798969607
0.0156522864317988
0.0157107682541296
0.0157524973628263
0.0161205480172491
0.0161110933603924
0.0161413758513663
0.0161444306826454
0.0166767864006379
0.0165740250410994
0.0166318092981157
0.0167223563953453
0.0173282765299458
0.0171854493458826
0.0172576472536175
0.0173899525784644
0.0187316051535173
0.0186197425262627
0.0186676976762019
0.0187738999196006
0.0201893641830284
0.0520281733878882
0.0561674590021123
0.0207778402601909
0.02086863833247
0.0624361838540776
0.0573014236108906
0.0202905811068669
0.0201479767384324
0.0595200520048051
0.0537621722175301
0.0200804456015817
0.0203887260234476
0.0517297241554362
0.0538550468361417
0.0203904762011666
0.0203282683801202
0.0485309247157422
0.0429969075405197
0.0207336486821944
0.0212010181007358
0.0399309415601548
0.0374523121079201
0.019960161258451
0.0178682637925745
0.0171135423373956
0.016641995891276
0.0164915545916098
0.0188217164531162
0.0311229699444091
0.028619541426984
0.0172797712100899
0.0166905075743302
0.0315017819629836
0.0287379326934344
0.0165584361331368
0.0165103925493852
0.0263230042373371
0.016330070830049
0.0159514126179164
0.0159799374476647
0.015557501327297
0.0156345575956989
0.0161640023268342
0.0165874029758773
0.0179861754909162
0.0315191625421353
0.0340317879480942
0.0186349671546874
0.0191126174547183
0.0340921689284851
0.0278722626100043
0.0173856008528864
0.0168157157188773
0.0268322006331858
0.0273968102602683
0.017464168322406
0.016574707008615
0.0240838932302681
0.0223575022370671
0.0158596369134223
0.0163795584972973
0.0248059388498224
0.0222817585000866
0.01615080357282
0.0165961718161429
0.0216641802209882
0.022886361837034
0.0166509545767222
0.016600965670207
0.0214025365946272
0.0204759709172235
0.0160077920968692
0.0159842239092418
0.0202540933177954
0.0195976880499263
0.0160683149595848
0.0163969913889951
0.0203908345814271
0.0193598723028564
0.016181331466589
0.0165902897106131
0.0206894424232587
0.0210649383309538
0.0171367209056385
0.0171629716462518
0.0217431554877061
0.0223148628873731
0.0170960761136282
0.0173736618368585
0.0237424693487304
0.0233047577352776
0.0228577966875048
0.0165350865204544
0.0169346393354842
0.0174034770713429
0.0170961598673124
0.0243438840575798
0.0246529743479334
0.0250837691961381
0.0177031012284311
0.0179446412984956
0.0268330756206435
0.0263926571781301
0.0264460189045667
0.0178755720097329
0.0180500361015636
0.0174781993758565
0.0171391830595532
0.0169782891927918
0.0173773840484001
0.0160696137840656
0.0158480735284614
0.015847038904716
0.0160664636087467
0.0154997584433428
0.0154326299199794
0.0154684340517444
0.0155345625277217
0.0155014519222166
0.0154476523128725
0.0152980360779652
0.0153283608250833
0.0153513139878187
0.0153212639433634
0.0153448051350695
0.0153750053134275
0.0153501347722187
0.0153224595147768
0.0152733657134014
0.0152863111369112
0.0152842643689238
0.0152736826248649
0.0152514040571801
0.0152604918517311
0.015259843389539
0.0152505002461421
0.0152711164593529
0.01528132686727
0.015274409735274
0.0152654936193035
0.0152846281555454
0.0152965250298761
0.0153201648000393
0.0153048035037081
0.0153155592270033
0.01532838905604
0.0153411323570176
0.0153300263321737
0.0153258169326172
0.0153372595770469
0.0153366164506612
0.0153249336436018
0.0153281698448241
0.0153421153316495
0.015355127408967
0.0153421181071551
0.0153419516039622
0.0153554223154708
0.0153563888884105
0.0153426526748691
0.0153422885747417
0.0153562037762112
0.0153690823946755
0.0153551216474095
0.0153980263780422
0.0154206193982673
0.0154341419671207
0.0154099221683759
0.0154706551727407
0.0155091498963742
0.0155287447737779
0.0154878642288299
0.0155766834954302
0.0156545522149195
0.0156880945579262
0.0156024377116668
0.0156692025072257
0.015739824566872
0.0157732471951441
0.0157315982182711
0.0157522187688533
0.0157941716837871
0.0163158435138916
0.0163076809528037
0.0163151563067075
0.0163157591768784
0.0164133554735411
0.0164188336242831
0.0164162857803218
0.0164009757267658
0.0167710595725634
0.01669305409677
0.0167576647579613
0.0168238698231175
0.0174723740580539
0.017341901741391
0.017434564370614
0.0175647182785636
0.0188370583457931
0.0187348759818711
0.0188161144153765
0.0189122278872404
0.0204075126181303
0.0635306130345159
0.0698659997122225
0.0209761016008005
0.0211011697529052
0.0205410766739568
0.070969708852857
0.0789006570055941
0.0898218463904041
0.0212424279678022
0.0206908221709284
0.079782954378918
0.0836067773974354
0.0204466020342164
0.0203276875904953
0.0742780312569214
0.0663168941869533
0.0202291927469298
0.0209811191034697
0.0658372482600311
0.0659380958420596
0.0205538188119627
0.0204596008363859
0.0594903805479473
0.0547282261381367
0.0231426777475772
0.022715320645877
0.0482950999492974
0.0433124854435405
0.0231255893645603
0.0220355281986167
0.0387139094100923
0.0355036318061264
0.0213207552579665
0.0204246194823298
0.0350331396090612
0.0387860622124339
0.0188701104347969
0.0179141424622143
0.0346598055695257
0.0166128152374392
0.0162140117654004
0.0163419202964878
0.0158347375785068
0.0158060416517277
0.0158932532707154
0.0155141678654125
0.0158209315235876
0.0162832889261596
0.0175977831201181
0.0280171079082612
0.0287370020792877
0.0179941509707787
0.0180869815604802
0.0289987341995156
0.0329989036018954
0.0192172266148925
0.0182715715922984
0.0305491402350253
0.0291723736952668
0.0181093409613295
0.0177368161427425
0.0278243249066631
0.0268578897645931
0.017132466054093
0.0169710470072743
0.0315321161029864
0.0288531383991725
0.0168415893866034
0.0167426234855104
0.0265993173743488
0.0245656133730862
0.0166665399939356
0.0166194170192898
0.024284727201484
0.0231325943893608
0.0161120603900338
0.016359852233948
0.0235179422214304
0.0220541800550861
0.0162953140303962
0.016256859188026
0.0205176295373345
0.0224505059308111
0.0163685237760551
0.0165717316000964
0.0216679080582226
0.0216939866179293
0.0166396100548847
0.0169861359444418
0.0223447410941458
0.0232926233573764
0.0178222010880672
0.0179056652526858
0.0236717804557901
0.0245700501199868
0.0177363430779687
0.0180979990890178
0.0247410851713246
0.0268703631208047
0.0181945763661268
0.0182193922056942
0.0286175583086618
0.0281496400416632
0.017957751482728
0.0180486863532196
0.0178282582789949
0.0277790275846278
0.0274480639508779
0.0286730435433767
0.0294660632148945
0.017851397325989
0.0180826642082334
0.0172906204566427
0.0170009344455658
0.0160036859743888
0.0162279342038223
0.016179502945411
0.0159781490787277
0.015504076533045
0.0155703089034673
0.015529578393812
0.015477252921973
0.0155044766113111
0.0155556635759514
0.0155784847202237
0.0155288928044679
0.0153680799415072
0.0153985562652989
0.0153714397807992
0.0153439761318493
0.0152951066781156
0.0153087713258927
0.0153063988814044
0.0152950771775216
0.0152722947926283
0.0152822230146806
0.0153050469229889
0.0152920561839463
0.0152905070795709
0.0153036829599224
0.0153278182272794
0.0153111110878724
0.0153222998507113
0.0153363758566647
0.0153498926640902
0.0153376524656525
0.015331059292935
0.0153419699499917
0.0153571803862264
0.0153468507849546
0.0153452341044647
0.0153558336373298
0.0153513796430386
0.0153406462468205
0.0153394116889383
0.0153504577077148
0.0153646044277935
0.0153534043059255
0.0153554615507178
0.0153684287999778
0.0153687296032146
0.0153552036668149
0.0153555700853559
0.0153693541796444
0.0153824231776836
0.0153682211557512
0.0153676614493796
0.015382029680808
0.0154302572740343
0.0154078496158081
0.01542193280633
0.0154464783604599
0.0155187078085997
0.0154805523185338
0.0155010720204102
0.015542369726102
0.0156646270581714
0.0155877713661672
0.0156184689265744
0.0157049856958688
0.0157582024486876
0.0156857737771986
0.0157023748884359
0.0157765413754884
0.0158143866153333
0.0157716003497536
0.0157910124982938
0.0158347928307466
0.015854635888085
0.0158097573252225
0.0158288740825961
0.0158748998265388
0.0164795522504252
0.0165018539915379
0.0164967308776411
0.0164646620985652
0.0165384992168974
0.0165761459514493
0.0165689349598701
0.0165226676283857
0.0168798704738219
0.0168231312313229
0.0168843567817106
0.0169374546773766
0.0176628665444308
0.0175338075558369
0.0176371269689995
0.0177666738447418
0.0189984276849417
0.0189097440755641
0.0190137321120921
0.0190957535177299
0.0192029231639885
0.0191257674217039
0.0214007378072314
0.103169024961398
0.0902955179240385
0.0208564732632218
0.0205817762642067
0.0945655038842163
0.0999142651543292
0.021262701764151
0.0209550762306441
0.0959870389724641
0.0836652563985526
0.0207767360562337
0.0206592731853379
0.073822890603313
0.0706168736327848
0.0228043623301116
0.0229602446605641
0.0622369468154156
0.0632802898080705
0.0243368937900784
0.0245018175502317
0.0542003253097387
0.0490533426024187
0.0245634857495461
0.0245931169652359
0.0461349586151182
0.0552476934515344
0.0245162447514811
0.023429354511677
0.0225899598183263
0.0232079291432004
0.0429503098440866
0.0416211185530289
0.0231459050093627
0.0231050981232312
0.0416031532221994
0.0384867941021508
0.0223455192979689
0.0221422996722841
0.037467087913958
0.0410531454981618
0.0222170379568934
0.0206196728822226
0.0406309661372896
0.0440461212107445
0.0190510019833588
0.017145552041304
0.0397788579449102
0.03623756061621
0.0168940221469481
0.0169993616674391
0.0335395882523502
0.033678720647652
0.0180168686244412
0.0180358008288577
0.037259369594756
0.0345696571642747
0.0184037768567073
0.0185540659055703
0.0378969564944195
0.0416534193496763
0.0186959041379194
0.0187518827107983
0.0375435153080183
0.0419183930594227
0.0214795972379553
0.0208024487353328
0.0373731614739313
0.0364857399519613
0.0198533512421077
0.0186905226753261
0.0329169437283638
0.030873609548703
0.0182623890387086
0.017973997424836
0.02965758729151
0.0304365166028858
0.0182422706506645
0.0182493309814581
0.0310684246592465
0.0362090722629737
0.0193906066339358
0.0214429353887474
0.0417354799940289
0.0360062457935704
0.0205179971308984
0.0192009537667256
0.0326711255767527
0.0298113139579412
0.0187609841566231
0.0182760628820466
0.0316248661233042
0.0377628340315105
0.0173234440734199
0.0171510015074058
0.0343566545048085
0.0339520300868879
0.0171282260439844
0.0167566882565376
0.0302622874368347
0.0316036021076034
0.017074596167491
0.0168294373297514
0.0292691297367791
0.0271217091735675
0.0166235274812063
0.0164673134192021
0.0251906362647071
0.0261413835581818
0.0165627007486767
0.0167831265256164
0.0247365012417091
0.0247251650831732
0.0168551287553305
0.017244242109411
0.026026933102531
0.0294239186601722
0.0179690899372612
0.0181247532785856
0.0294988719622986
0.0308356630696412
0.0182889320154275
0.0179766540853006
0.0297121120079759
0.0313123924343797
0.0180401282254197
0.0181614853404718
0.017923222404635
0.0312422710555411
0.030025950146707
0.0315064741364817
0.0332494385504756
0.0180499749630579
0.0182913128568575
0.0174712740060814
0.0171731363083153
0.0161608287522216
0.0163915581803211
0.0162676388179028
0.0160766494956776
0.015573996174022
0.0156394109202277
0.0156685889241731
0.0156048058268123
0.0155494154200757
0.0155966990544825
0.0154209464372815
0.0153894287134542
0.0153636793238337
0.0153917431034918
0.0153321760947666
0.0153157030636665
0.0153153219708755
0.0153296250602109
0.0153553226384422
0.0153372233155511
0.0153133242517048
0.0153300762737522
0.0153390745280514
0.0153251163369505
0.0153414621522176
0.0153533337470269
0.0153500126019208
0.0153381148608229
0.015354931919154
0.0153661918818258
0.0153659786503459
0.015354118563024
0.0153708317853378
0.0153831740930431
0.0153731899486459
0.0153626125850361
0.0153602206459937
0.015371088550369
0.0153659348264861
0.0153550925644582
0.0153695570777625
0.0153808890201628
0.0153789990903452
0.0153672695593929
0.015368602000955
0.0153819360895551
0.0153821336137727
0.0153681580196124
0.0153814406543909
0.0153958051830827
0.0153957324036548
0.0153811357541275
0.0153804396209142
0.0153951886764584
0.015440243005873
0.0154179949376302
0.0154340002616519
0.0154588343817124
0.0155286305995373
0.0154907430482076
0.0155143116612495
0.0155560027584445
0.0156752315672683
0.0155992247582314
0.015634542758819
0.0157217500681715
0.015738314623601
0.0156505766531869
0.0157189463294069
0.0157948354321192
0.0158130922499692
0.0157355092545309
0.0157521147469126
0.0158313361284647
0.0158495599517702
0.0157687778884953
0.0158475849662325
0.0158947625948316
0.0159151624947104
0.0158668445148433
0.0158857770436086
0.0159351939618539
0.0159557751234577
0.0159052954834121
0.0166448145792143
0.0165934574941694
0.0165756486219251
0.0166350388139118
0.0167071111564376
0.0166437124108033
0.0166232870895437
0.0166946059750392
0.0169416366889625
0.0169952505092171
0.0170521024035415
0.016995212704582
0.01774171010705
0.0178742005626346
0.0179827481916677
0.017844315407148
0.0179400675129678
0.0180883921569029
0.0193172578644507
0.0192431807859875