/*--------------------------------*- C++ -*----------------------------------*\
| =========                 |                                                 |
| \\      /  F ield         | OpenFOAM: The Open Source CFD Toolbox           |
|  \\    /   O peration     | Version:  2312                                  |
|   \\  /    A nd           | Website:  www.openfoam.com                      |
|    \\/     M anipulation  |                                                 |
\*---------------------------------------------------------------------------*/
FoamFile
{
    version     2.0;
    format      ascii;
    arch        "LSB;label=32;scalar=64";
    class       volScalarField;
    location    "1100";
    object      omega;
}
// * * * * * * * * * * * * * * * * * * * * * * * * * * * * * * * * * * * * * //

dimensions      [0 0 -1 0 0 0 0];

internalField   nonuniform List<scalar> 
207032
(
3.3659747746874
8.27056889701495
28.5220042029884
25.8065399717486
7.03433529220206
6.83458406306214
25.4349546433523
24.1323364000532
26.6476682991998
4.51399932655239
5.11762749898639
2.58169789010051
2.17017872993069
2.29020230610414
2.69037121148523
5.54697740264787
25.4553389236512
28.3486815460603
4.68686617045423
4.87102910528215
30.1645885113885
27.1631958357326
6.09206354993005
2.90679936496474
2.41258262322032
2.5913772250045
3.15765758004179
6.82465443042424
29.1526034454556
31.9070122676356
5.38592779013681
8.56090637290502
37.0413496220795
34.5727973873133
9.7769387619988
10.0643116141168
35.8781724749345
31.6733291979161
8.76539143040261
9.62931870937145
35.4637268000135
34.2073795928176
10.0515218582768
9.64855702917331
30.4639577824751
25.1981795621814
8.08170936478709
5.33443497524624
19.2693498580119
15.3436576774094
2.89277726993339
1.51859992119165
13.7386406839687
14.0712768231414
14.385030685911
1.07608655052852
1.09084248976948
1.02279605293255
1.00357540873537
1.00224609107804
1.00113796270085
1.00461859188352
1.01643739428822
1.03082896825614
1.01220608567703
1.73825836712329
17.5347411159921
15.3108500347904
1.67928178826153
1.06975271425141
1.04183374123874
16.6687280043653
14.8780121903173
15.0809171323682
16.557168339542
1.03051648036865
1.03790967752355
2.44196260605561
16.6743531520928
19.3501260082596
2.38537263921029
1.16065664976661
1.20588760677891
1.21192239423354
1.16345996895305
2.93308976558282
3.54363905395814
3.54385348114335
2.941296418441
2.09335928129693
2.34753844089332
1.2188302426504
1.16797319324209
1.06018332781305
1.08353899680011
1.31752647641363
1.18730352125899
1.27980480972156
1.39999144430321
1.44406443253661
1.37052924676359
1.48151450547528
1.58030296371191
1.91368354472261
1.63366469929769
3.17535143675415
4.02862152748291
5.44024214599364
4.81559987095863
11.0836722569611
47.6655098208518
45.6290186295314
12.0509187051954
12.6603954090798
45.3008091151939
40.9946083114909
10.9379957430029
12.0878403589171
43.6689656373891
50.3855835251347
13.0342130879398
13.6826699846474
50.6533539678432
56.756452178013
14.6417219663389
14.6876142124817
62.2501637255182
82.6837938297017
22.4020532560478
18.8695689539827
70.3247230656348
58.3654966005353
14.8729386283379
13.8041816499345
52.6307407504398
43.3354466857164
11.5379638788476
10.4219007638878
39.1427607959512
36.6858869054409
10.1163588131926
8.09207067332673
30.7339079023017
28.8062680915067
7.87203018321712
7.32124949491557
26.6743006691445
22.8752386851072
5.95889035698257
7.55185521703855
24.9937239847069
18.246802783878
4.85810222947381
3.35674507113291
14.9408932826861
13.0727950478898
1.9676150732494
1.03819543199998
1.0105489682648
13.8826513692562
13.1540360730132
11.9403488931418
12.0348993774518
1.00269363642558
1.0092701101661
1.00318927920528
1.00106482448039
1.00255026830706
1.00907617431483
1.01100367788106
1.32777836726947
1.40775411203728
2.0835197445564
12.6802549663172
12.5438235359134
1.75959626873691
1.00575810704321
1.00167193083708
11.8498111757869
11.8081077345461
13.2079066159602
13.9064488524314
1.00444186480725
1.01019447997135
1.00066075285337
1.00040856702199
1.00011529282225
1.00023835824532
1.00081537946331
1.00027104111448
1.00054100994394
1.00303245544448
1.00117749585778
1.00027386068992
1.00023509686143
1.00037397138601
1.00000208133402
0.999984767703641
0.999951112079341
1.00007088688987
1.00031098712051
0.999978882459627
1.00053540602962
1.00276678946174
1.04113445928184
1.0198510172757
1.00251679452593
1.00524612421558
1.02128268904153
1.01454403697678
1.02595299176895
1.03549857453159
1.05549017788144
1.04606863113814
1.10935400378821
1.1444244789653
1.18460383209746
1.14814170106772
1.21221823080047
1.25341871573378
1.26528793335814
1.22257799571925
1.37264210739947
1.45938094187049
1.47991117977391
1.3905435868295
1.85789675678223
2.23104528637817
2.31685072165468
2.03568129725642
4.89610492870141
5.45515895185085
5.4177336452399
4.88556295047378
13.7995790348374
13.4321685692585
14.0467299830034
15.5641721948914
14.5328237190689
13.1709955149574
18.8551718630969
79.4373185477465
96.1665847438086
22.1067270644689
22.7088829655955
99.0594087659509
83.4192596370919
19.6355046343039
15.1442423692395
68.1672194763126
65.3038332584735
14.7195357910245
6.54647998811668
4.01953766655912
3.27983432583658
3.75053931754742
3.58346222578446
5.08942725298524
5.05199543276514
6.73754809391643
32.6431266194572
32.1800169069909
6.70305143174023
6.66366379989175
32.3678524646724
33.0280702811079
6.82291006937668
6.7793176492445
32.3429542849429
31.9360718184488
6.69473650343059
7.25060014631016
26.4657041983263
19.2185731962443
4.84097834690027
3.30582801788153
15.244738656431
14.8132094080915
2.54368491381852
3.52960826591812
15.7617798991793
13.4309524129074
2.17775955550444
2.02056253363108
13.7560676636239
13.9444159449648
14.9598405078032
1.00388381548765
1.01157196106426
1.00083398401498
1.00025781860787
1.00009226722576
1.00021632956539
1.00017960538455
1.00009229958182
1.00009062331641
1.0002263551194
1.00034615982138
1.00008039723092
1.00000740170204
1.00030885879927
1.00009511256552
1.00003146074128
0.999942014773551
0.999941468597242
0.999937269316278
0.999918625834472
1.0000869266758
1.00040139833548
1.00360406636433
1.00134050249502
1.00060413907014
1.0009530467151
1.00865158837664
1.00494612366718
1.01971818232257
1.02873995417902
1.03845538174811
1.02899525717816
1.04791310738391
1.05466490156624
1.04677561765504
1.04092362885298
1.06536948892086
1.07184870765903
1.08224529102371
1.07154459161766
1.1040822054453
1.11619147434007
1.13757766104848
1.12283919200429
1.22874349632774
1.27039558473004
1.29885474941814
1.25695934737227
1.28376479645413
1.32643282165461
1.35773782415208
1.31476595303249
1.52321553156752
1.63822176140598
1.66374910763673
1.55278091401207
1.88875649013764
2.20653061714081
2.20125202099263
1.92136024128326
2.11917685905661
2.34581536265076
5.47705024284694
4.99158302939249
4.96029770346764
5.43932436042159
5.89399273488833
5.56533337620461
14.9408629229142
13.3722211850341
15.3079066048393
17.2741974310068
28.6669839388014
22.3274298084178
93.6214297558356
113.256195827838
137.091059251261
105.480114154537
22.2096058778812
31.2997134118213
18.0813169265869
18.4202262750693
18.4335804287921
18.1370358151062
30.7284804318795
22.6664079157615
111.623734819987
143.456746264918
121.124906209957
27.6993039752188
22.0327866756676
106.353336213566
96.0502696037022
21.6250903645058
22.0037611376781
97.0530735328305
94.0320182958665
20.5580439594334
20.669814629581
91.2609303199645
87.0495696867523
20.6574686761655
17.5938227765041
84.4963451405159
77.1024569213217
16.5280257124169
18.2655067939564
65.3919802354773
54.6503250247609
16.6773453916443
11.1559585780989
39.7626318931994
34.9480664096861
9.31597299337196
8.35178495026658
32.3668580671976
30.2549154268517
8.26466959039874
8.25393260610222
29.1212806369636
27.4230495945946
8.13453820879796
8.13004316025788
31.4657449493067
40.5448097299731
8.69519996759726
8.36954496264775
37.4932094268941
40.901646545645
8.34618545511032
6.8318823960708
36.6658971927432
36.0411109724289
6.7833968150364
6.77702961988007
35.8800261188269
36.4694960822783
6.81187217520058
6.89231940928708
37.5486469721462
34.3162548528012
7.62775351863276
9.92813504227857
33.4945413343899
28.0936202670878
6.47332074397925
6.34153402016682
27.241428818636
23.3247219191147
6.29358131001563
4.77233153780694
18.8791681913834
17.6166099185325
3.72838406035735
3.22605036946822
15.6485531563839
13.4120553209298
1.77132575710105
1.4144030374915
12.5006157531729
12.8236214493206
13.6192668833384
1.00347098048149
1.00924272916232
1.00797624489204
1.00297315119345
13.6044794309393
12.8124966879324
12.4972934269577
1.42103884548673
2.02120076200527
13.7715730459178
13.9329126583509
14.9140124205699
1.00339040465343
1.01192958159271
1.00125259700272
1.0003176242217
1.00022734189264
1.00053623647443
1.00029928657337
1.00010951007761
1.00008587892178
1.00033722342583
1.00060366770312
1.00009444720579
1.00006973406391
1.00212445896609
1.01789962749896
1.00177149669045
1.00075013162235
1.00018476976455
1.00429245665174
1.01464619292561
1.03656766214476
1.01301051109379
1.29171559008721
1.37531777535688
1.07450597434458
1.04165513076529
1.09481600698471
1.13573386410134
1.16532587697514
1.12100724351182
1.16236086660081
1.20815538697793
1.07016830902047
1.05899520986027
1.08878395697114
1.10059068962044
1.08159389290618
1.07380580785612
1.10684713620163
1.11640812550106
1.10622379797
1.09851953884161
1.11584870513197
1.12635677302556
1.1368470229299
1.12260855235961
1.14774124943569
1.16251225821566
1.1625827250711
1.14765604233926
1.17564457304246
1.19158733625564
1.22620873303365
1.20899432698086
1.24717528722859
1.26763177495156
1.39296679065272
1.34972639273681
1.3833718919836
1.43197504011776
1.68857537977407
1.58405920183138
1.61936153717659
1.71873219662848
2.20523389628341
1.9586734526178
2.27192075342619
2.39644222104669
5.53601132191909
5.13472534622454
5.81716571848788
5.92981390943615
8.64822958545674
8.52639088267344
8.59739596749935
8.63417826769326
16.4808162974148
16.2413638965123
15.7142184096133
15.2256492584815
21.5695545334852
98.3092266985706
110.436657520793
26.4292482868074
26.1769990881398
112.897046692408
98.359610829567
21.4235926960615
20.4151236598051
93.2662305190004
92.1438531204691
20.724787355536
20.4141982288083
94.7369776886428
94.14913444424
20.6705537176239
17.4706991606328
73.9838523104524
71.8130777892531
17.3344859883262
17.1215886168732
58.7257084656642
50.1917701486233
15.0256571251333
14.3029108766781
44.134106184741
34.9120397062341
10.2541660869406
8.48511545835395
31.5333657042302
33.8496379339107
8.25322347729139
8.18293155040422
33.0288154540467
32.393854414055
8.15744824425876
8.67115884594234
41.2778369194166
40.9341967238379
8.33370057906169
8.34426700288094
41.0484152652436
41.9802245577266
8.38707069314625
8.46375832395737
43.5358271027655
45.4927709232841
8.68446319224982
8.10063050668357
40.4502776636613
40.4157505431025
9.79298086938834
11.4740527999023
47.7744285627284
50.5824293479937
11.568481924604
10.6771792368288
39.6695113970783
29.8994646704396
7.20618624438305
6.1152576273478
24.6100601739316
21.9956984424208
4.5940876807778
4.46613541995206
20.6590005306594
19.1420889119953
4.14994274601884
2.52962263407012
15.5314360593715
14.3688360325753
2.07558529840606
2.28244548385793
14.5219544512766
13.4059989110944
1.76203414606893
3.21132997478445
15.6657174591008
16.2725383519284
4.00747932233534
2.76518003004751
15.2036085148007
15.2732525675931
3.30452279019524
2.07517836493637
12.7257497812883
11.9335937455933
11.9846806209227
1.00186608523949
1.00781059985657
1.00207920107256
1.00041484635228
1.0014561268586
1.00839435594721
1.0393233215215
13.1930633041612
13.8435919478629
1.01381877322423
1.10447400380432
14.3406538565608
14.1245115874274
1.11384839733475
2.4004090101835
14.5973920379194
16.0448212886163
2.33212595258164
1.8092118735339
17.6605104618373
20.460921498393
18.9785969374089
3.72596307009017
3.30442224897276
5.48068022441505
5.06280808119084
23.311772899698
26.3736532188901
29.4749644498494
25.7990216016043
5.09878716881587
5.16671819027491
3.29685305352259
3.76701325369067
3.75921739358259
3.28898177224861
1.29615644294614
1.38422699338714
1.39485977427654
1.30264853245295
2.29235717434508
2.48260330185305
2.7318260663348
2.39342770187885
2.63075331455423
2.96342386415016
1.53099341733639
1.43089378913925
1.61582739940421
1.66356230529937
1.25973775056843
1.21723063699967
1.29717188430364
1.32816253298431
1.13516259350426
1.1219694472898
1.20873193477363
1.21704718380863
1.17169478887363
1.16039050585939
1.11526478716105
1.12638669103699
1.16108411001756
1.15106739635544
1.14372349811658
1.15452038719475
1.18928466299621
1.17791752675943
1.17835734648414
1.19394407055184
1.23228496896901
1.21570284470009
1.25828630375292
1.27822374515959
1.33350504970056
1.30255398465198
1.28529509600132
1.31670864070465
1.37105138021868
1.33045428271078
1.42121021272457
1.47615025563941
1.49327833603019
1.44051922263781
1.47067906808552
1.52312916647402
1.74231681545139
1.65264094051746
1.67095730578677
1.75612562274454
2.18801044156479
1.98315937860654
2.02776060161284
2.23457659127484
2.41768968735263
2.29242478875061
2.36150069954953
2.4222630084898
2.42252807959567
2.65205889998344
2.28590514645577
2.39785524878845
2.39699731646536
2.27113784270492
1.98133274661248
2.20674441858665
2.18416255785188
1.96277075821307
1.63927406767773
1.73019394191219
1.72360661257975
1.63240476201385
1.74115771755748
1.78382375538934
1.8108395944059
1.81119897599961
1.81672696849144
1.74559836802759
1.74070639168949
1.73782725406555
1.73250840614945
1.80478409953006
1.81541595194129
2.10079902181944
2.05984096817946
1.92800360906761
1.8370072477752
1.84913719064395
1.79541673622342
1.72305812791548
4.21315878300335
19.6866988505927
17.5848025794656
2.87624899370952
2.65316624892999
16.6705016351368
17.7738776703154
3.16572198684053
3.10175225047544
16.2364818718826
20.8885441679776
5.54741552988803
4.08523613852931
17.932748225999
20.2404741465045
5.34924102720722
3.98547923128993
19.4065920023606
19.1073596825756
4.72768104010906
4.91646917418173
18.5196937251842
20.3521127889192
5.42982358824308
8.31385809904172
26.0332435007453
27.3471795501877
8.93468467586627
7.58220471595464
27.5643743332673
29.8357019663754
8.1865953573556
6.67996454930531
5.91714681573144
29.3780321571742
29.6871902839429
26.8566058899885
5.42634814318756
5.19958385207094
27.8431936256603
35.6876233346614
35.1727641296476
7.88681361264101
8.58839499987937
3.67403283738222
3.14127279551844
4.4084194481435
5.05632977437929
1.98762621242235
1.93328638621
1.97215791352877
2.0264110508235
1.37621564042939
1.34255255063683
1.32122726093076
1.35512349083158
1.36009085727175
1.3252614722134
1.37375352230451
1.41089742792693
1.26261787946131
1.24357640474959
1.24687439034949
1.26064721804892
1.21117288027005
1.19532364509422
1.19148265703611
1.20867568210792
1.20052687764236
1.18877912042727
1.23576623768676
1.24847420950502
1.23212084415742
1.21950322243247
1.26815863997443
1.28410373558463
1.34638190221638
1.31780194067316
1.3751995197862
1.41510248481265
1.39295738520524
1.35264750894668
1.37594030105262
1.41451158459484
1.44758373769421
1.41103707111733
1.39297282050144
1.42671025254868
1.42065931095171
1.38457516473535
1.46822188013674
1.51836798590278
1.54877063315478
1.49798369509412
1.50417327653138
1.55559837840887
1.7656719344115
1.67796488688228
1.70502714563838
1.78525391452055
2.19900745229104
2.00939719118997
2.07323470428519
2.26717115443311
2.45152559366081
2.32501048116238
2.54833956809941
2.54535552057809
3.93046364078702
4.13441458942107
4.17699790196791
3.9558947792343
5.8995184295888
5.82231926330954
5.85172979727899
5.90050946854064
8.56341172180707
8.58259906388185
8.63661132122335
8.57830235859402
14.8443047746212
15.5048309519831
15.4367394909737
14.7658257408115
21.509368634403
101.514473946317
117.401665997253
26.153501914244
26.2486731936323
123.436757254451
106.271410782023
21.7012724385956
20.399203687562
102.071767027551
96.8992009330537
20.3443337364629
20.6814965099775
104.010654621806
104.405689845715
20.7896927476049
20.7291069289087
98.7694599850009
79.8758206912146
19.7599982790458
20.6020774053472
71.3374719900929
63.2458493349478
17.3029019084869
10.5954879527038
7.54968347751295
6.20260527759238
5.76278501209042
13.1441296872621
43.3335582249633
36.200951041199
9.4767899829549
8.85596347554016
44.5509395575537
42.8712146488856
8.66827277630034
8.65752208966527
41.7639948380647
7.60604243971961
5.38978539583625
5.5754481294764
2.52663273471539
2.64687276816232
4.16119278868493
5.10749404092593
9.63122102304103
40.3053153439106
42.4440971962251
11.0258611820655
10.2810187669763
35.4938352895383
25.3375103665454
6.04376898772455
5.04957913464417
23.1096051012253
25.9287855117305
6.62071753926708
4.80191613862212
20.8876012468349
18.6575202047192
3.43472082706396
6.36513531902133
26.2695526258004
24.7672174621908
6.0045573920756
9.07329391997641
32.7477903672639
42.4667853729194
9.55639669182136
9.59191153403283
38.5014254103186
33.4325353158679
6.75756130150366
6.60980480235292
31.1274174519974
26.0396422401372
7.07458787118346
7.55714292718691
25.4633209868296
23.7326799169763
6.13890900437597
7.92270340596163
28.6102062125984
32.2169847592824
10.6041433818657
11.0714709592459
35.1013581248309
35.4543388273178
10.3168506729289
11.8067269554581
44.9235111888532
43.2627777601418
44.1088175803957
9.2679579391159
10.1104985489989
12.4855720747095
12.5571702902646
56.600676347233
51.0615020767599
54.2126030236508
13.5931049208913
14.7626163818665
60.5149487832801
60.7839259858101
74.1752094843885
17.5488791344918
15.8474058132744
12.7076012148053
12.5910098102294
11.6144214581497
12.2248684267978
5.09572263869604
4.48876018367788
4.49839362898593
5.08756698634776
2.16576205857395
2.06946764091162
2.12883068424635
2.22012042532025
2.07395671954249
2.0266481265897
1.38095222230828
1.41382679307113
1.46380300250903
1.43083255390842
1.49358578795461
1.52902181255
1.4723258617929
1.43476576229026
1.3000164210366
1.32046795635097
1.31706351135641
1.30170947281669
1.2466128107267
1.2640585466065
1.25824132160211
1.23938242847991
1.29523486877918
1.31861809272034
1.3061161568924
1.28986543473321
1.34630160972123
1.37527622705121
1.45297057908299
1.41093661364046
1.44357722470428
1.48299506767604
1.52886643348961
1.4909384547137
1.45634766372239
1.48779387858356
1.48352439669302
1.4494023751357
1.42530405567091
1.46001341236863
1.50212995935351
1.46759057928822
1.44859362637633
1.48491311760661
1.46354791824527
1.42916349822484
1.41823493355705
1.45300182195459
1.48539040370094
1.44960866128432
1.52519058178958
1.57744894677468
1.58774797862882
1.53492470479265
1.70048545769597
1.7887283828784
1.81579381089592
1.73553566813343
2.02983052300702
2.21315313749532
2.30255514390309
2.11157402341339
2.35945751446239
2.49037649403416
2.57887225930054
2.5937555311268
2.640821864236
2.61697429263454
4.52531548932054
4.73712619348281
4.69252849400481
4.4598029390694
4.75129449898946
4.99956257017401
4.92254554412816
4.64574773022506
5.93756018286555
5.90313533000596
5.97083455088116
6.00725449682064
8.69432684470163
8.74574346704222
8.89159502054552
8.859420989388
14.7796802736143
15.4477842716689
15.5159706042672
14.8427447186393
21.9551668702148
111.893042116996
130.410454312004
26.4144741912677
26.6485718899803
22.2726791673087
118.345185742117
138.521497881084
147.745546538972
26.9331634337647
22.6558104679281
125.40284383383
121.467943029702
20.8980886932765
20.667904940828
114.631755765112
108.117156260355
20.5042431846184
21.9705057023199
118.498193784351
117.868376968077
20.9473666097165
20.8441109683364
110.834816183858
107.590817784299
26.2212926636986
25.1114701060213
94.184746214991
92.1576105309886
26.5657413117921
22.3478404192507
71.484181910817
65.9415645059532
20.6966579017628
17.507725980388
58.3824526790639
56.4693083667055
13.4959185082112
11.4891427073332
48.9818099988105
7.73059108369399
5.35778905075188
5.74446657086497
3.19107620637927
3.06416720036116
3.2887032793342
2.03437948197889
2.66795849087576
3.62155309480179
6.39580444674349
24.7250588719578
26.7265697879802
7.49276921188474
7.96159040285975
31.8109849880774
41.2816960761771
11.6933480398665
9.72463546191341
36.9605510391537
33.220531425841
9.78107244348508
9.04679066806199
30.464249060346
36.0810844378332
9.10884899676788
9.56391623319112
46.7339092123331
44.5082747844777
9.34200363284007
9.37832853634559
43.0991288256258
42.4701276819964
9.28623309320874
9.2079988101309
42.6346631788583
36.1200465237299
6.78648049506082
8.26692991228945
40.1717818182582
40.1309105406598
8.23092626093266
8.23726754447626
36.7837749715077
40.0310415650558
8.51320684689063
8.22893006906559
31.2174587583749
29.0415888324167
8.44090004477104
9.49135442854332
33.3469549117114
41.4514258895943
13.926812016775
14.692292910663
46.0161255333574
54.4725525508869
13.8046438163806
15.9728096282048
60.4028433004246
66.5098944544471
16.2584146948408
16.1615242746282
67.7222621716569
61.7107939926469
14.6415854427869
15.6248778076221
16.9691614853037
81.7720158267104
63.9353041534788
61.762418227053
78.5278326368212
16.7196360596118
15.5059513300481
11.0967225336641
10.9865024965932
4.76793101556755
5.35906442539714
5.14647883407405
4.6428515828426
2.19967491380501
2.28853840412151
2.12265372365868
2.07860043480444
2.13963456525403
2.18316655031121
2.2585030227422
2.21231343710637
1.57036224791591
1.61092553361186
1.54700721709613
1.50571913017144
1.36867550277761
1.39431444450764
1.38845958377713
1.36815126926245
1.30793879489418
1.32980988657807
1.41333824621137
1.37765783203926
1.35665817116146
1.39284759724647
1.48606917207528
1.43435680005712
1.47797398298453
1.52846550187709
1.59658482180778
1.55428556411606
1.5151946741743
1.54462683792123
1.61813643485339
1.58718102056411
1.55253834169254
1.59549103401866
1.53681236673346
1.50596318520343
1.49433762000991
1.53097405038129
1.58059602882928
1.54090655017636
1.50777640529989
1.54411152806328
1.52213672074174
1.48391903405507
1.46190753321278
1.49855727675531
1.53128763300148
1.49198571636498
1.47881775347466
1.51687265939335
1.60404113014633
1.55029886955195
1.5635105865441
1.61961374949319
1.81104387147146
1.72132384191612
1.76377905658335
1.84634476182368
2.22883560173647
2.04842304984518
2.14762921664551
2.33909962713331
2.53359274673615
2.39583132315152
2.43334072946593
2.57701017809947
2.6546733636763
2.68292830863755
2.72831958113077
2.69472395805578
2.73448894490635
2.7712810225695
2.81944383773569
2.77741329319992
4.87188034658729
5.15922964161761
5.07839294624766
4.76431575789004
4.97850386542061
5.29086193496322
5.20961438005285
4.87315601029041
6.10121450180148
6.04286386202862
6.10498983147578
6.20967661581375
9.05525768171583
9.06643816440126
9.261531349134
9.28434561578475
14.952585942422
15.637390900825
15.8085111235296
15.1141683029939
15.326710624718
16.0231224984856
27.2702865960744
158.252330474974
133.108939006994
23.1020646116948
21.1722603664536
128.5848197377
145.053961511419
22.5138336338975
21.6308708391821
141.354105598878
132.819002009892
21.2910002086334
21.0940270611089
125.023322161311
120.592299407185
25.2131390892329
25.6697122268387
113.837295077466
138.616127298094
30.7099273004871
31.7330220699185
130.225152266173
132.077526410689
32.1442784140544
32.4361909540428
119.003038670239
133.123051187277
31.547132820015
28.419476978805
25.0348075212916
27.0324972175647
109.664078308438
104.819280481745
26.9103895463824
26.3646151855614
97.4942313700229
94.2043370603461
24.8820571113323
24.4661275776324
97.2592080135297
101.721761532209
24.6256477248999
17.9283134139081
71.482953622855
62.3281649250316
13.8260366102717
9.47065171492596
50.5697078274669
47.878273971429
9.02765524228667
8.3541605528712
43.4616653657097
51.698977348235
10.7751913024753
10.7216224981677
52.9115100545038
50.7308251567352
11.4960841655804
11.7757599718652
52.6259062722887
55.1823229043254
11.9419090432044
11.0712357532533
47.3692915770469
56.0679755419652
16.3678675019193
13.9277541226546
48.2725503005089
39.0783843379839
11.6243832030589
8.50533399131933
32.0226230682031
29.0201277743086
7.81968590444078
7.02730867338882
27.6780571447573
29.2241796235428
7.85073104977239
8.19718543549607
34.260672887922
46.4267186882734
11.9469833385619
18.1300199425953
66.3067066489448
54.279543209091
15.8661752232773
12.7245856561478
47.1382107416082
41.2203989047549
11.7236265780868
11.5152593610338
44.1650830773612
51.6592502804276
10.1417263122588
9.79212269662627
49.0301702568067
48.9213095805236
9.99868050383003
8.02503371020416
39.8171288536298
44.5498850957086
9.77053996031864
9.12177212975073
42.6496550426072
41.0676044812143
8.66222165207943
8.39220475447256
40.1713649918528
40.8965972023127
8.68043395732376
8.48166891381321
32.7583006447473
32.0187776584364
8.73266027686029
9.99022429389484
38.1423528479122
52.3277414386362
14.0794469674391
15.437852663232
66.9666063528108
69.0929339296585
16.2387580443897
14.4747102521786
61.2390218002432
61.6824173373909
14.4950717396827
15.5935431765838
16.7213712763249
77.8325507020929
61.1122197845735
61.6454671213808
78.8295343895926
17.0188383685788
15.9674511932973
11.442586754755
11.1660638752577
5.18055821644917
5.78173259192164
5.25141192823549
4.79328169254528
2.39714745354271
2.48593710287001
2.62849169284638
2.51910626732699
2.29348359205757
2.36031381239944
1.71745370348215
1.65606456126787
1.58434236606104
1.64295659118164
1.49142157395493
1.44811294377097
1.44594229755636
1.48244547728409
1.61739211018556
1.55627062413429
1.47397256914138
1.52913145698804
1.57612993603129
1.53761488651934
1.64501724382133
1.66831839599762
1.59776859778406
1.57621601689694
1.69369805172573
1.71689052912581
1.70947503449051
1.65533372132873
1.79563696251057
1.85899536315441
1.7169540526189
1.68368176598425
1.62815226133699
1.67471942143154
1.59404185997082
1.56237219133254
1.63286639826101
1.66556435385723
1.63623210486766
1.59342641583835
1.54888057431051
1.58727184288826
1.55929576528142
1.51786434120554
1.5527256892458
1.59836001894709
1.5629810759336
1.52122835066927
1.50633350028154
1.54686181071488
1.62857955659283
1.57367217626947
1.59096955712139
1.65049684843436
1.83304205721713
1.74178533793451
1.79135418492353
1.87690020283877
2.24585384993943
2.06762241326931
2.18395973973903
2.37578352978873
2.41168356813271
2.21970808579948
2.47232250735947
2.62290286791647
2.66773339388919
2.51131644910344
2.55105004725135
2.71173080030258
2.75272054331545
2.58948806400688
2.86613939158993
2.81932002200716
2.86374893895057
2.91783650049518
2.96713640878164
2.90575906739259
2.94926125685713
3.02015836110134
5.40552620360654
5.08001594865883
4.97187636228875
5.32221565718414
5.50055741186498
5.17123413179321
5.05376314458436
5.41307239853457
6.16028626795241
6.32605135598846
6.44226866202628
6.20752147581007
9.46664326039745
9.54101368471846
9.81458504528778
9.66717808509315
9.84312253728045
10.0866589096333
15.5830621729701
16.2722863161696
27.6717418315838
170.213528241265
141.624617795151
23.5961027463458
21.4936115144578
136.130444797509
155.219563187646
22.7873812954535
22.1671965761607
150.560904575644
149.658611173425
26.8600917489223
25.4911895501273
137.589823347598
128.418627330148
25.1454152897502
30.9132936654623
157.117411981534
143.13523138628
31.6811575628846
31.5730353018938
134.240935580838
102.888864890579
27.277899958259
27.0599326760749
102.869425281362
96.1106853675351
26.0479740335481
26.2912665689377
104.334491457049
101.966238940578
24.9630140037015
24.5961675859777
107.505810387188
103.615642292124
24.4494236157727
22.2284283576018
99.305931192608
99.2630543137203
22.3327343086405
18.6067752792762
74.5472970608135
66.3273417095198
14.5098615863868
10.0611191784747
53.2624237324951
47.1164520765495
9.07725472941551
8.65899224900393
44.95696803509
6.22560796845545
9.53395906004951
9.50734869720946
11.1301306885341
55.3024384818786
58.8155803566047
12.120125921209
17.4170219711657
68.329479288411
63.7781387891922
15.9404616917974
25.3759584623901
88.3365838161775
78.1490026973102
23.4779831723107
18.053573247982
58.5765259409864
45.8353384639106
14.386404140008
10.0562976262024
35.4576360872446
30.5208247833858
7.91787861121046
7.25531751035452
29.1249122300151
30.4235455881237
7.97529687366348
8.41189906084837
35.6315238120148
48.7946488628348
12.0536608027359
18.7355685064232
71.8870037601934
91.4226398522412
24.467308714369
25.8242157853018
119.806198425531
114.074451090249
25.2029064922803
25.4786522192961
110.632118295183
101.297234977012
25.0599025761332
22.8846680246769
81.8861972304089
59.6717589445481
14.4131372999096
15.2730534067977
60.5978428038804
52.9323949915313
13.5824418611895
15.331737164902
57.2591031335555
48.3278979170988
11.4637957567516
11.8077203326941
48.8833449446416
38.5782326042248
13.4629142287619
14.537398150911
37.3003240865348
44.4355298022113
17.2084367734896
22.0944826943272
64.6765871352626
84.2381378705596
22.1335345790037
24.8337465057691
91.1239758496309
83.3948380604238
24.3638768665773
29.7030184602511
33.5986007044414
133.301322281364
92.1614884935547
88.7917543536208
126.646691909379
29.9694169006017
26.9038227894682
18.0130012588353
17.9068379227664
13.5920214823596
13.1363035351085
8.72048545271627
8.47800459756223
7.8305769819548
8.31018275039027
6.98659074680381
6.559558607741
5.33598334702587
5.67647561970293
3.92740686398607
3.79813312397274
3.66500946635268
3.77312047887935
3.54365141330434
3.44476660894833
3.21826608685229
3.30570451864942
3.07987835122004
2.97613454704228
3.04311094568444
3.12503154108906
3.25475904154652
3.14450557302759
3.22860510231361
3.33179522145986
3.46596683110653
3.31371199190311
3.34451999175877
3.46649506294356
3.5341395268395
3.3601938894387
3.27545692875172
3.40577612273803
3.11709310732337
2.9911047232787
2.82493480181791
2.94051494053788
2.51851390771425
2.46967666789062
2.26142668764087
2.35326937734552
2.04720907258551
2.00296858065947
1.85915111501758
1.91353655384845
1.75989303565334
1.72540945024448