/*--------------------------------*- C++ -*----------------------------------*\
| =========                 |                                                 |
| \\      /  F ield         | OpenFOAM: The Open Source CFD Toolbox           |
|  \\    /   O peration     | Version:  2312                                  |
|   \\  /    A nd           | Website:  www.openfoam.com                      |
|    \\/     M anipulation  |                                                 |
\*---------------------------------------------------------------------------*/
FoamFile
{
    version     2.0;
    format      ascii;
    arch        "LSB;label=32;scalar=64";
    class       volScalarField;
    location    "1100";
    object      p;
}
// * * * * * * * * * * * * * * * * * * * * * * * * * * * * * * * * * * * * * //

dimensions      [0 2 -2 0 0 0 0];

internalField   nonuniform List<scalar> 
207032
(
83523.5087507362
83537.1331532703
83558.7416364733
83536.1380381349
83522.679803523
83512.7815635264
83500.8283921402
83492.0323374778
83495.9829925302
83507.4548218628
83507.5274382956
83503.8491157676
83504.1144319653
83512.3772184022
83511.9286929363
83520.1655846626
83521.6802075083
83520.6660627664
83520.9856575805
83531.2527217971
83539.5784694073
83544.0523375341
83531.2137672375
83522.7472743107
83522.9791651062
83530.1686450525
83529.4931381804
83531.6260195495
83537.2215332554
83536.58515573
83532.0372958403
83532.8900511365
83534.3878974012
83533.1341089803
83531.7169805827
83529.8898852454
83536.3527421544
83545.4879428132
83532.9659218761
83532.9357023562
83546.0255872435
83530.7252501636
83528.2264938637
83532.8661100832
83547.8307331265
83489.8650584586
83502.4080108944
83488.617946082
83465.7043016753
83470.9806970023
83485.9845593492
83484.1434620103
83459.3606672482
83555.4326937817
83554.2762940042
83517.5779688348
83509.8179674919
83502.4347911731
83502.4457981718
83502.9833940003
83502.4132963676
83501.4650691842
83503.045434602
83497.130374215
83496.9040943739
83491.4794178732
83490.0071475174
83472.0879853824
83488.6663669069
83507.5918302134
83501.7378815265
83522.9312831317
83563.2104778543
83547.3391690559
83526.5755786064
83509.8993541222
83513.779205817
83488.6548024405
83478.5020707405
83484.4326474947
83491.1264943625
83495.6994795462
83494.5449725023
83495.307083875
83496.8857244069
83496.9607043803
83496.567851247
83497.8976151193
83497.7407991417
83499.6561327557
83499.8942379874
83498.2268433537
83498.7315065978
83501.833062701
83502.0211696031
83508.7782755506
83507.7509162859
83516.1793963488
83515.7654516436
83524.3852985643
83525.4180391148
83533.3706025129
83532.5755861018
83540.481005725
83540.9556037525
83535.462831058
83534.8637986481
83541.0936430675
83541.5984622943
83536.5892468541
83535.7676379585
83533.4932757372
83536.47488683
83535.262160983
83533.1417802243
83523.2184433254
83532.6194209732
83532.9859191715
83536.9578310513
83552.6342150448
83536.1400283356
83537.11095741
83546.9739761215
83544.2526802835
83539.3711152526
83539.1581551053
83541.2783220153
83538.5036447473
83538.1956493667
83537.1893103511
83536.5639181533
83535.81606741
83535.5582844046
83532.0361626109
83530.7446491129
83529.3822826866
83528.2594959897
83526.9015503387
83528.2328632889
83528.9161540531
83526.7393359826
83524.1785905907
83531.2647057809
83515.063532616
83519.2637162002
83518.166149678
83507.8589752815
83548.5916334117
83512.82403156
83505.8071921854
83501.8161162366
83498.8862711847
83496.8226029505
83490.5236743258
83488.5137041276
83477.2909771006
83487.3123210991
83499.4102786599
83506.8623987562
83524.3580355508
83503.5074233715
83494.67763332
83510.1972440009
83498.7641006013
83495.3549614076
83496.7600747361
83497.8951096227
83501.0600330765
83499.2680043267
83492.7397574436
83490.5574721873
83492.7458902863
83492.2693916374
83492.7160916777
83491.1607389404
83492.1675784415
83492.7021692558
83494.966592444
83502.9066911814
83490.1486388343
83488.608963803
83498.1605676415
83492.6392270972
83490.4393350759
83490.9841497456
83491.6186562894
83493.1000792484
83492.7653636652
83495.1058410715
83495.3138233628
83497.4553419888
83497.5430871377
83498.117586868
83498.0420636974
83498.4625352417
83498.3805535009
83496.0467807145
83496.2271381775
83496.3625321409
83496.1887880955
83496.3473050643
83496.5228689735
83496.6336540421
83496.508212586
83496.5390702134
83496.900695297
83498.1313616256
83497.9465890018
83503.126726206
83502.9841703673
83510.95908457
83511.69622667
83518.0227668059
83518.2636348661
83517.0002784777
83516.6854388114
83524.8757376123
83525.4496223311
83535.0622806757
83534.464746499
83541.4903694675
83541.7788352862
83549.5671813283
83549.0268335094
83554.0275981722
83554.6051203362
83549.6822244601
83548.9617555572
83552.3094460039
83553.5326108276
83549.4239565825
83548.3809074514
83543.0518525236
83542.9145697963
83541.1253201566
83541.6787799751
83541.3232707449
83540.8521596872
83543.6784948014
83543.6245792407
83538.5682438816
83535.1676004243
83538.6247723922
83539.6656889855
83542.424916673
83541.0435143784
83538.1465572277
83541.3224023756
83538.709005317
83538.5497340748
83530.729269323
83537.0450113183
83541.9426280531
83538.778881615
83530.7104493247
83518.1574603655
83504.4104271538
83489.0766242086
83481.4020730379
83473.1865774882
83476.5525727833
83471.8805283673
83479.3500197495
83491.7643019284
83506.1630586306
83502.1584657105
83492.9498980067
83496.5845881285
83493.444238575
83505.3927536855
83502.8762073314
83497.203046339
83484.2975990297
83488.6918711501
83494.0929266882
83492.6341024141
83490.8402498971
83491.2467324727
83492.0001309173
83491.7980858393
83492.2149632331
83491.2263327051
83491.4448239613
83490.2304617341
83490.6975588208
83483.8769978988
83491.510802328
83489.3265705896
83487.5623132039
83489.6395395692
83490.1073251863
83489.0078227237
83488.989971506
83490.9744567047
83491.0094669777
83493.1119201325
83493.1751244968
83495.2243531744
83495.0130639305
83493.0233025614
83493.1779478338
83494.3182582987
83494.5325979343
83494.3638166658
83494.1710739363
83493.035960715
83493.0806583582
83492.8133174152
83492.6984517106
83491.290938976
83491.5826596516
83494.8146224086
83494.5997256325
83496.2412092625
83496.4703865432
83501.1716308346
83501.328780378
83510.9632922005
83510.0346514542
83517.9194414139
83517.6883012541
83518.4992637467
83518.7374435221
83529.2583353905
83528.9065615041
83527.3653678544
83527.7196828666
83539.1982524759
83538.6594984275
83548.5394869823
83549.1855036575
83545.9723645943
83545.3327626846
83553.3235182019
83553.6679157818
83561.0978680947
83560.8524388095
83568.7651362288
83568.9446888928
83562.3654788253
83561.7710794255
83567.173742915
83567.5756389078
83560.3050662196
83559.6355979832
83564.4589270071
83564.366318823
83557.0926237715
83557.1956176049
83550.7464766787
83551.198418953
83546.1700738932
83545.61387561
83548.1220266794
83548.4765912091
83545.6155316604
83545.2813277435
83546.5371120261
83546.5902152567
83544.1067474092
83543.5734841531
83541.4033914628
83543.4314788578
83545.236156442
83554.021162237
83544.5568468796
83543.2194973854
83544.5738592656
83543.4166482744
83543.6561150994
83544.7849198941
83540.1871876177
83537.9769257185
83529.1234845118
83537.5382582064
83542.5298450247
83542.8544053894
83541.9232097076
83542.2293374924
83545.355266442
83541.3719342832
83537.3487003743
83532.5814208411
83534.9999079286
83536.2013136955
83533.1606005497
83531.1248421891
83533.3391800174
83536.7815480057
83539.819299168
83540.3439154297
83530.1905331874
83539.8816422496
83533.9677091028
83530.5202961793
83530.9738034212
83529.6013234216
83519.3711144441
83519.9167698119
83521.7919411657
83520.9106734057
83522.7401863857
83526.4422236366
83519.4018041662
83516.4366294339
83520.7639074491
83526.6204786211
83514.017907674
83516.8700884871
83515.7122312402
83521.3688804714
83523.5851449754
83514.8348231741
83514.6967737953
83529.4622018815
83515.0477325287
83509.1968284909
83504.321988694
83513.2467315569
83502.8532817379
83496.7824572488
83485.3034689355
83482.7283785285
83480.0667940467
83479.6783205937
83467.107916006
83463.0494811947
83442.4624393443
83455.9188408333
83438.27453127
83432.1990384389
83468.202775964
83468.3173552019
83480.7413502343
83475.3965504974
83492.9321254887
83489.6131808856
83491.0886436478
83492.1385566396
83488.6908923055
83488.2461364125
83490.7314443891
83491.7351326746
83488.886323042
83488.7205794746
83488.5871821442
83488.2895998595
83484.2494070119
83488.0857285868
83487.3251968243
83486.765746259
83484.8603141036
83485.1912046197
83484.7978014243
83481.4843129387
83487.0465657735
83487.1965006805
83486.0564239598
83486.6799811558
83477.077323189
83482.1778785992
83483.0551586629
83482.2567871867
83485.1473831954
83485.3482243858
83487.0659473137
83487.0086856168
83488.8267774766
83488.8785631444
83490.9996151864
83491.0285330556
83488.5457835957
83488.8913990389
83491.7103408654
83491.5073348985
83492.8626101033
83493.2313780481
83494.2526659087
83493.5430673863
83492.8450990439
83494.2309665112
83488.7912840515
83489.0345072978
83488.1589292181
83486.4815118896
83491.3639025197
83491.9405335866
83495.8121642595
83496.0727951918
83506.0892593463
83505.5421854904
83511.6141684429
83511.2672139467
83515.5237051318
83515.7598464531
83526.0964077035
83525.5837887311
83528.2046615237
83528.6345543198
83542.8922454344
83542.4772141012
83542.3050733244
83542.8805167232
83556.6214252747
83556.1106145691
83553.3151156107
83553.9191931351
83564.2220621382
83563.8683567231
83558.6383266782
83558.9455975227
83568.2615332211
83568.0615358733
83577.3677392294
83577.4560483409
83587.053498707
83587.1306251966
83576.4566725238
83576.473930576
83584.1296690173
83584.3663937137
83573.8351082858
83573.5278386049
83579.3737748079
83579.7108805569
83569.0091310443
83568.5120836091
83560.6176784117
83560.9431489228
83553.665078826
83553.61156491
83555.6374373044
83555.7450240339
83548.9750485528
83549.3070265346
83548.7692394033
83548.9913686614
83545.5644120504
83545.7042769645
83546.8234675709
83546.1461787807
83544.3249513349
83545.7731273744
83545.0473036025
83545.0621056562
83544.4794437561
83543.7605777354
83542.7981197378
83543.2288292774
83540.7410175603
83541.2612303026
83546.2150410646
83542.9732838634
83540.2823335393
83543.2773913632
83540.4062626435
83537.2517199117
83531.0520784065
83533.4109424965
83523.0434569989
83529.4402518569
83523.4081527999
83519.8416909161
83514.8850172376
83514.4948815409
83502.1679192349
83502.851584537
83509.5559953523
83508.7003174863
83512.1038330348
83512.7859683299
83504.5625238262
83503.684765533
83508.9035092798
83511.4444568881
83518.1768181194
83514.1910583705
83504.9385393017
83505.0632037029
83502.8009878244
83500.0575637236
83492.7450548773
83492.7775099237
83487.3975015726
83487.3886884513
83477.9218679334
83476.9272459757
83466.631058472
83466.437667248
83454.6207236044
83457.0606167727
83450.109140756
83446.9654034027
83428.9871563134
83425.2158389701
83429.0492585979
83420.4484424022
83407.2589909383
83408.2511584888
83384.4906906562
83385.1985475066
83428.4346694421
83428.1494739827
83458.3541775113
83459.4738617093
83474.0525670925
83471.637629394
83482.5392043462
83483.0922559559
83479.9302501949
83478.6220037802
83485.2541301327
83485.6329826381
83483.4630097922
83482.9784938206
83487.790818838
83487.1425059827
83485.9398117735
83487.1030745584
83483.5455128547
83484.2631103431
83483.1892267218
83480.404576434
83479.5958124742
83482.8418605178
83482.7840581688
83481.0826783485
83480.9216549536
83490.353073528
83486.5554308695
83484.5156463518
83487.4836063566
83488.456735521
83490.6498600308
83488.9267521651
83487.0759387369
83487.8777638014
83502.3331193354
83492.7536377511
83504.0073603386
83533.1202141882
83538.4549386525
83497.6702709065
83473.6437870565
83447.4166226357
83460.8244967061
83478.2285600525
83482.0158641742
83478.5761038322
83475.3146005062
83468.5888394976
83479.5344437103
83482.8187736125
83484.7410899733
83480.9108741526
83463.7984704068
83476.7786875763
83476.6219628356
83461.1693541999
83485.7770880003
83486.6674437397
83488.1832030857
83487.0044922491
83485.6975803931
83487.5898510887
83488.5385891471
83485.94372198
83489.9468897908
83490.8780371328
83490.4479587161
83490.2125379489
83494.0207646699
83494.3519044908
83500.9288996181
83500.0378353985
83506.892927617
83507.4081013085
83515.8997962294
83514.9212445204
83519.790642666
83520.5467991074
83531.9403862222
83531.182141699
83539.4026160763
83539.7814947875
83560.5663856375
83560.6762862118
83564.6954852235
83564.6720854295
83558.7912439141
83558.4678736424
83571.4235628685
83571.9872402482
83568.4765332578
83568.172518355
83580.860012775
83580.9654373897
83574.9422789639
83574.7305579092
83586.1590695426
83586.1681285661
83598.0163745097
83598.3828789386
83610.9800557614
83610.1987320795
83596.7708475698
83597.1617897462
83606.4067828052
83606.1338033786
83591.3159454844
83591.5067367423
83592.1121602118
83591.6130007075
83593.4341917837
83593.5189615778
83586.8076620403
83586.8454713361
83580.6623439339
83580.7275479158
83575.009526868
83575.0005464312
83570.1720711418
83570.2575617523
83566.332463262
83566.2433894553
83562.5438109172
83562.6147998662
83559.5677051777
83559.2822636815
83559.6813703566
83560.3518168016
83566.6636316528
83566.1256161478
83568.9858974421
83569.5780688103
83575.4005580663
83574.8920236639
83579.4014495507
83579.9504943106
83587.4161544387
83587.1351159767
83587.1313785622
83584.136081559
83590.8744311424
83591.1829416854
83589.4351588102
83588.5000226018
83587.9049878767
83586.6288397067
83582.0983996769
83569.8981060369
83556.3765952134
83532.1621294277
83522.0472619649
83494.1669361373
83463.2804597495
83449.4070530451
83428.0291219795
83421.795697381
83413.6889711581
83413.8341233512
83448.4074795537
83450.7550504002
83469.9173567073
83467.3297910461
83463.1903832438
83465.5964904756
83476.9434195759
83475.5519417248
83474.7737195513
83475.3282782345
83481.6550480481
83481.5523984839
83481.1110391794
83480.7113355401
83481.1809266983
83476.2658247502
83475.3821538565
83481.7700477648
83484.1117529898
83485.0833415988
83451.6319628966
83476.3924434251
83488.8027813859
83473.9149945065
83462.518406822
83491.7128956055
83498.6773988071
83483.7165429184
83520.9746960097
83507.1268102941
83504.7875109936
83506.4224996488
83505.0117477009
83505.6225651243
83476.5526638361
83493.9194480103
83494.7090067446
83483.4854115536
83528.7385207253
83522.9613142262
83514.8975424712
83514.3772843778
83508.5106211548
83509.219298181
83513.217188785
83512.3419934382
83523.2224169762
83523.82036638
83533.4643867063
83533.235525239
83539.086995337
83539.2994135516
83548.3724126271
83547.9734639402
83557.4142046224
83557.4814598438
83570.537797313
83570.7531510306
83581.4958200256
83581.4039787543
83588.0690172444
83588.0023994479
83589.9174679015
83590.1887373377
83590.4018430212
83589.8975124799
83585.6368471668
83585.9275797761
83602.3363788646
83602.4556581762
83595.0740417705
83594.905534974
83609.6704915267
83610.2619487999
83625.8872266675
83624.7832247992
83639.6227088372
83640.1581470716
83622.3379587623
83621.9605172303
83622.9093305603
83623.2853086502
83626.0204342017
83626.0214004448
83616.4879349543
83616.4361659839
83608.510863891
83608.4990427542
83600.0203759053
83600.0166475422
83602.0891694983
83602.1031388721
83595.6479335691
83595.6881579622
83587.9018456943
83588.0513638315
83582.2284368248
83582.2137780743
83575.8303697228
83576.0318128205
83571.3944355763
83571.3214839325
83566.8099288526
83566.9614613372
83563.5131500786
83563.5501383131
83561.3702553999
83560.8801463971
83559.7736291155
83560.2219849195
83554.6584994596
83554.4898149588
83554.6647656095
83554.615641651
83549.8581133355
83550.1829327968
83550.8106696343
83550.4979746779
83546.2382167509
83547.0337917668
83545.8857819025
83545.0457493311
83541.5592023649
83540.2928552859
83541.9183783392
83542.9633759546
83541.7485545401
83540.7491596229
83539.2223491895
83540.4717337919
83537.6472574321
83536.8162835529
83537.8335422667
83538.5281502021
83534.5646628012
83533.7857198918
83529.7672410677
83530.5147083813
83533.1687391769
83533.5625605337
83524.8018501803
83526.5506526973
83517.5347697436
83508.8661406823
83525.3000393878
83523.9686558451
83528.5752405033
83522.0048285035
83506.3687456046
83490.9991128782
83490.3048222899
83490.4963186278
83499.6869917028
83498.486565724
83486.5554338834
83486.7139232228
83494.7525832663
83494.2297411899
83499.3226202711
83499.7517638249
83499.337298466
83495.9714897265
83489.0762584211
83485.483248077
83456.8405375945
83438.8231474636
83392.9474522717
83390.649155274
83402.2891173255
83356.469707522
83353.7577458509
83331.6821184152
83327.8227591962
83324.1772791109
83328.8912167954
83360.752154597
83355.7972271499
83338.4259189006
83342.7205585064
83400.4171784618
83401.6109560164
83440.3256637552
83441.7039320028
83432.8841866197
83430.9423138837
83466.5889119681
83464.9275548567
83470.4189913563
83469.841366568
83487.0576815495
83474.976691188
83475.9089854546
83477.1219755838
83487.6223203971
83479.8298062911
83482.7164783239
83483.7575416526
83466.8829811242
83480.9001542454
83487.2956342694
83481.8368019532
83526.3598990542
83496.422292423
83500.3284285435
83493.1023897166
83532.4264029074
83517.1814937662
83523.6314229429
83550.226680505
83544.3937418269
83519.9761339358
83512.5535015823
83524.6607205957
83516.137155042
83515.9254202938
83512.0807582056
83511.6363546454
83505.8274525802
83506.6302066699
83506.4087005076
83505.046093621
83507.5007798459
83504.1412370249
83500.0720932651
83501.7419986272
83503.3857234399
83503.5973191473
83502.7189783305
83502.3675247088
83503.3351024382
83504.2054295762
83506.6675783566
83505.5790959896
83507.6770097009
83508.4727703321
83518.4547285187
83517.8743107927
83525.5067724481
83526.0121570772
83528.8602857428
83528.6478754106
83538.4558518255
83538.609514059
83548.615243712
83548.6113830006
83558.8296663191
83558.5296317413
83569.298293268
83569.9161354738
83585.4786571452
83584.8875985376
83599.5398022909
83599.862444337
83607.8296944666
83607.7273173167
83610.6891472259
83610.6625816372
83609.2724435705
83609.3605778604
83628.5384773393
83629.7988853842
83620.5211232956
83619.5445947856
83637.5618545542
83639.3289463767
83656.5661752513
83655.5289627823
83659.9459211801
83660.5158142464
83665.1856972032
83665.1905954128
83654.1726141134
83654.108222736
83645.0569742045
83645.0328736217
83634.2716459481
83634.1381953596
83636.8215971864
83636.6618109025
83628.7572565864
83629.0158841483
83618.4411696557
83618.3798044712
83611.0168974927
83611.1236033605
83611.4812566176
83611.3410041012
83602.9627274956
83602.9161720431
83596.3599889536
83596.3704465857
83589.1122313362
83588.9975640822
83583.1401091754
83583.1689037553
83577.0896243051
83576.9256166937
83572.0354043511
83572.1499261032
83567.5125923663
83567.3243101192
83563.5052200137
83563.3212078401
83563.5748375899
83563.642098607
83560.855649937
83560.4941458238
83559.7902540986
83559.9358782945
83560.6551248141
83560.3719480164
83559.5697429615
83559.6478563164
83554.7808332461
83554.7951662416
83553.7491445694
83553.8151041543
83549.4793931853
83549.8187991411
83548.3810961134
83548.0892240237
83543.7228141779
83544.5078878697
83543.023341526
83542.2645244478
83539.2918793959
83538.2690402806
83539.6041098843
83540.4883575321
83538.4862137333
83537.2644843599
83536.4084712618
83537.689006673
83534.7430714624
83535.5346584087
83534.2432756499
83533.3956249608
83531.0761899942
83531.3415118337
83534.5360098119
83534.3171334515
83536.2083141693
83536.6574443754
83532.9833877117
83533.0394860807
83531.454818872
83530.6908110826
83530.8609154783
83530.4296807957
83525.1648214528
83525.5644375064
83525.2241465259
83524.0700054426
83518.0393557069
83520.4092801874
83506.4467827431
83495.3888266879
83488.3492697583
83494.0997746297
83479.4026865236
83478.5047957993
83462.2038208361
83462.5808689174
83476.2875510165
83476.6119640252
83473.9597215035
83467.588508152
83453.5450446999
83445.6254581815
83440.20380831
83410.9111038125
83389.9299099557
83358.1983486591
83308.2615301622
83318.1896206433
83325.9315092554
83321.281592889
83312.0006172809
83301.5643746392
83303.0532359637
83287.6121474922
83291.9698338726
83312.4387548619
83314.6964387676
83348.1701587244
83341.6775140762
83380.3114276866
83374.8295881214
83382.5921116819
83388.6953839182
83386.0966993927
83382.7851039939
83417.0251445761
83415.8550739295
83435.1229671963
83431.2744589834
83461.2121702122
83458.3390250377
83458.0012763936
83460.014718269
83465.4732990136
83461.5569982614
83462.9344649728
83464.8400693453
83484.9664455642
83479.7073104542
83488.3023249371
83498.834063874
83492.2546238787
83485.3795688185
83487.2788926701
83489.7865627061
83487.2084545011
83490.6538650845
83494.6721813728
83490.8493819701
83513.5865634538
83505.2374936043
83513.7032675629
83531.8019589409
83507.7665380185
83504.720114871
83500.1721100575
83509.4615364002
83502.020989517
83497.5928475814
83490.1750535181
83488.0553770537
83494.9858615134
83494.2243959231
83497.4456717443
83498.3275020112
83497.8331908321
83497.3024104941
83489.7808471198
83490.8514546564
83493.1574726044
83491.9897507913
83498.9981753936
83499.9296793956
83508.0350870974
83507.5300217888
83518.3109941714
83518.8859202162
83531.6892575419
83531.5527664588
83544.7052195006
83544.7183700887
83551.2253028244
83551.3576556994
83557.4790639784
83557.0196246738
83580.3678064405
83581.501129905
83601.4622922819
83599.973205222
83618.0948753784
83619.8085683441
83629.5245428629
83627.8166880448
83631.1274398601
83632.647049986
83655.4350523866
83652.6064271564
83648.6108170416
83650.9479980085
83670.4682944544
83668.8819034656
83675.0852382162
83675.8380830408
83681.4582408839
83681.3811450475
83672.1319269878
83672.0482953992
83674.4671632187
83673.6716077116
83667.879216462
83668.6907553845
83656.4776565433
83656.1003567464
83648.1296182183
83648.5943420206
83647.7774474144
83647.0835484803
83636.3794373841
83636.7929356669
83628.842303937
83628.4760633582
83618.7942423024
83618.9442392879
83616.9981442335
83616.8065256973
83609.6859233267
83609.8886618089
83602.1934385773
83602.1746753946
83595.7506372502
83595.8084497884
83589.1614942432
83589.1706930825
83583.270486835
83583.3144717375
83577.5167074786
83577.5530408795
83572.3993277855
83572.3738585246
83567.5265209816
83567.7411078491
83567.6837929638
83567.5160479801
83563.5139940332
83563.3773334458
83563.3998849639
83563.4224514726
83562.9999755571
83562.8940158625
83562.5813905266
83562.5859126767
83559.9848990899
83559.6959858864
83558.5735516272
83558.6256629207
83558.6568592476
83558.3597164278
83557.1062308156
83557.1508307987
83552.4468355669
83552.3100744254
83550.6471959267
83550.7836891566
83546.5335748039
83546.8329417329
83544.8358547894
83544.5759594047
83540.2769505219
83540.9855966444
83538.17504041
83537.5180512193
83533.775903061
83534.3974989187
83531.6104255739
83530.7884611575
83529.3235402519
83530.2644322875
83527.2694961381
83526.7971654933
83522.7831229463
83522.6005031961
83519.1950483657
83519.4694283366
83523.3203011327
83523.2526511921
83527.3450220741
83527.8155344869
83522.6142628548
83521.5368935288
83525.5916295779
83528.3851716133
83524.7788875778
83520.896350635
83516.1894138193
83517.5314365166
83540.1712520799
83526.6801567643
83520.4615336653
83510.9861508431
83532.0995811641
83524.4680161635
83521.1413689725
83515.2759438053
83520.3379298948
83528.136097033
83515.9815187467
83517.0799932524
83509.5829622039
83518.4351046403
83506.2773672615
83500.2837509263
83485.920275533
83484.6540598677
83483.0961203946
83479.187603501
83465.8999318238
83462.7466187303
83446.3625153719
83447.0915296873
83435.7775291153
83435.9795569977
83450.3880858356
83451.6586264358
83436.5376232717
83431.9634607582
83432.9681387283
83426.9423267147
83406.7905896743
83410.7949848486
83405.915440644
83400.2333325303
83368.8466416316
83367.1453389692
83346.1045587058
83345.7645677845
83332.7323630671
83328.2523508952
83303.0915452658
83309.792123809
83308.1641980768
83306.9565716689
83325.1499060568
83302.5631593313
83294.9634864329
83307.7824711228
83324.1252869382
83309.6773864079
83300.5964948491
83310.7097633744
83301.6341979153
83293.1979334674
83288.4320781075
83299.8752766688
83291.295924244
83281.3214823394
83272.8289967696
83278.9506340915
83291.5324739637
83285.8037641051
83312.4932152471
83322.1024504951
83320.5714503331
83329.6786447095
83326.7139505189
83316.9436462092
83315.8110742333
83316.7032496145
83353.7529593029
83353.9842386842
83347.3485806479
83347.6654834002
83341.1222226525
83340.8393951485
83334.2425181923
83334.2897791793
83380.2778508745
83379.3408786105
83414.6165299202
83415.7577587071
83442.1292814301
83441.8412017907
83444.8113717559
83445.0830997698
83452.9027621646
83453.4105793082
83459.6887756016
83459.7348960017
83468.1688085802
83469.0460481168
83474.0614231542
83473.5152899753
83482.2702681925
83485.1017409583
83484.0426626036
83485.5475925922
83488.4935168448
83487.19681608
83478.182675214
83479.8744398959
83483.9021931743
83485.403912666
83482.3951012135
83480.9698543752
83467.9564369439
83469.7443389984
83473.3236935041
83471.5706408159
83481.9053379216
83483.0261592142
83496.7428398505
83496.0214902577
83513.8590226205
83514.1289527834
83535.1582409978
83535.2657171314
83533.0305080057
83532.7536877531
83560.2546067537
83561.0122794877
83591.405593968
83590.0013549386
83614.6926684589
83616.700928521
83639.669718181
83636.9773528813
83649.0591515593
83652.0130778665
83672.4387801239
83670.2108116838
83674.4183800312
83676.4540330865
83686.0901793556
83685.2346083732
83689.8387812485
83690.2383520896
83685.9863723502
83685.7665657761
83684.8191657747
83686.345250732
83684.2381005115
83682.8676453948
83676.7202056896
83678.6186452488
83671.6534664466
83670.2259833416
83665.433109982
83666.5857116498
83655.7581498801
83654.9241747824
83649.0682348109
83649.8440322881
83642.532029926
83641.8839328862
83632.6382885863
83633.0502554535
83625.5715671552
83625.2216607303
83619.7920630738
83620.1578474906
83613.0802533298
83612.8390436524
83606.6715933444
83606.8880533376
83600.2678433579
83600.1624088161
83594.2882838672
83594.3818590342
83588.3588272356
83588.3323808867
83582.7139871704
83582.7539751173
83577.3679814718
83577.3800499114
83572.3213208226
83572.2941415395
83571.8656621119
83571.9177391203
83567.4409284128
83567.2477623537
83566.7937847345
83566.9311657131
83566.2758184681
83566.1122641705
83565.2673670334
83565.3596186117
83561.7502772895
83561.8349230941
83561.1223621318
83561.1148640146
83560.080667293
83560.1696162155
83559.2827384332
83559.270889664
83556.6787772897
83556.9508947118
83555.3788764946
83555.343275938
83554.801137064
83555.0844324336
83553.4919283204
83553.4219998941
83548.7362741481
83549.0144296859
83546.5545660196
83546.1710619162
83542.1040504732
83541.8437459894
83538.1177395642
83538.3381506124
83533.218568485
83533.0976400195
83528.7750234749
83529.3726680538
83526.5211842486
83525.6613686762
83524.042023513
83525.1422056739
83522.0869952628
83521.2288314261
83516.9349841567
83517.0843357411
83513.499946131
83514.069587725
83512.4133935572
83508.5965295429
83514.1206750629
83514.7659490243
83518.0116454477
83517.6803893945
83511.3726836971
83511.4337179617
83506.0548591124
83506.2154979231
83509.1052089639
83508.3771729954
83501.3079192046
83501.7226802286
83508.5261382498
83509.249768426
83503.7753770643
83502.1458679692
83510.2642823952
83515.3395741156
83503.5247258634
83499.7247613985
83493.0318488182
83498.7997677391
83489.7685994255
83486.6247074584
83478.4377726727
83489.0703532519
83466.3078248563
83468.037756488
83452.2313126948
83455.4828854464
83430.9347674705
83429.0643212721
83414.5081830143
83416.1538424918
83399.244371756
83396.475897955
83420.5037971593
83422.9727664194
83415.4436421487
83402.2244775225
83372.7066796011
83379.0551555923
83380.8004038312
83356.6301917181
83354.478382762
83330.7038553758
83333.9452438823
83323.8799296506
83323.186230469
83305.8737378729
83302.4906314184
83307.2970023777
83301.075057524
83297.6670736896
83306.0493775202
83288.1287553968
83284.4970168016
83278.7264206303
83280.3986657483
83281.6320199565
83276.6639594082
83285.8277903139
83291.7082818338
83286.0518621533
83280.3219475976
83277.1250880425
83283.531422197
83278.45888626
83272.2004994333
83265.2681744301
83266.4515712086
83261.3634567496
83261.5746307907
83256.7328779541
83256.5918921198
83262.67749328
83260.1381287239
83264.0493593371
83265.3103623855
83267.4774261714
83259.7133660422
83255.346544436
83251.8808039367
83286.6616412312
83283.1895890929
83269.9521339564
83272.2792116972
83253.1055595781
83248.6096700922
83228.3243053698
83232.8569148139
83283.7358035784
83280.3753848456
83265.7541523185
83268.627282544
83250.5617245316
83244.9830531983
83221.1045305178
83230.8779892761
83210.6089406824
83199.4569585551
83181.2285901711
83188.9991646252
83216.6910103705
83210.7557592806
83207.8647680915
83209.8133187087
83207.5458496765
83206.3290781507
83206.5719115095
83207.3389426886
83208.0457507114
83207.3539536245
83279.1338174495
83280.6294363482
83281.4693199525
83280.0887020857
83283.4106482838
83283.7870612494
83308.9542652216
83309.9416585784
83315.8648369347
83315.3233986061
83325.2190186014
83325.353356064
83338.4897969854
83338.2265134487
83355.3648581828
83355.684125979
83377.1607662068
83376.2790301835
83399.3164045477
83400.4846723964
83425.984504438
83424.4202716113
83447.8235060339
83449.5321104681
83472.3359029186
83470.346227055
83488.3615659704
83490.3760981752
83506.6130531033
83504.588630138
83516.2663871584
83518.0566179391
83529.2315392031
83527.7441166108
83535.9085232027
83536.8919194146
83547.9915452812
83547.5788240345
83560.7367756399
83560.7222067412
83579.2727653308
83579.2792418037
83603.7434953197
83604.2190713238
83626.1858866405
83625.1501424563
83642.0230631655
83643.183407257
83646.9078435658
83645.8235462943
83645.2271298009
83646.109500914
83639.6523101052
83638.9213022398
83633.3265686646
83633.9439212494