/*--------------------------------*- C++ -*----------------------------------*\
  =========                 |
  \\      /  F ield         | OpenFOAM: The Open Source CFD Toolbox
   \\    /   O peration     | Website:  https://openfoam.org
    \\  /    A nd           | Version:  13
     \\/     M anipulation  |
\*---------------------------------------------------------------------------*/
FoamFile
{
    format      ascii;
    class       volScalarField;
    location    "5";
    object      nuTilda;
}
// * * * * * * * * * * * * * * * * * * * * * * * * * * * * * * * * * * * * * //

dimensions      [0 2 -1 0 0 0 0];

internalField   nonuniform List<scalar> 
54636
(
0.0249179
0.0160773
0.0125125
0.0110248
0.0104153
0.0101723
0.010077
0.010039
0.0100228
0.0100139
0.0100068
0.00999849
0.00998746
0.00997314
0.00995591
0.00993741
0.00992096
0.00990919
0.00990712
0.00991603
0.00993212
0.00995249
0.0099724
0.00998884
0.0100016
0.0100106
0.0100167
0.0100209
0.0100234
0.010025
0.0100258
0.0100262
0.0100264
0.0100266
0.0100265
0.0100266
0.0100265
0.0100263
0.0100262
0.0100262
0.0100263
0.0100262
0.0100262
0.0100262
0.0100262
0.0100262
0.0100262
0.0100262
0.0100262
0.0100262
0.0100262
0.0100262
0.0100262
0.0100262
0.0100262
0.0100262
0.0100262
0.0100262
0.0100259
0.00999659
0.0410679
0.0354121
0.0320721
0.0301891
0.029178
0.0286586
0.028401
0.0282759
0.0282138
0.0281801
0.0281564
0.0281332
0.0281059
0.0280747
0.0280394
0.0280077
0.0279848
0.0279719
0.0279717
0.027988
0.0280161
0.0280523
0.0280886
0.0281204
0.0281454
0.0281639
0.028177
0.0281857
0.0281915
0.0281951
0.0281969
0.0281982
0.0281983
0.0281986
0.0281987
0.0281986
0.0281985
0.0281983
0.0281982
0.0281981
0.0281979
0.0281979
0.0281978
0.0281978
0.0281978
0.0281978
0.0281978
0.0281978
0.0281978
0.0281978
0.0281978
0.0281978
0.0281978
0.0281978
0.0281978
0.0281978
0.0281978
0.0281978
0.0281967
0.028131
0.0460454
0.0430651
0.0410771
0.0398487
0.0391356
0.038743
0.0385352
0.0384278
0.0383723
0.0383418
0.0383212
0.0383022
0.038281
0.0382703
0.0382584
0.0382475
0.0382408
0.0382394
0.0382438
0.0382623
0.0382876
0.0383052
0.0383176
0.0383274
0.0383351
0.0383413
0.0383458
0.0383489
0.0383509
0.038352
0.0383525
0.0383525
0.0383523
0.038352
0.0383517
0.0383515
0.0383512
0.038351
0.0383508
0.0383508
0.0383507
0.0383506
0.0383505
0.0383505
0.0383505
0.0383504
0.0383504
0.0383504
0.0383504
0.0383504
0.0383504
0.0383504
0.0383504
0.0383504
0.0383504
0.0383504
0.0383504
0.0383504
0.0383494
0.0382922
0.047897
0.0462344
0.0450783
0.0443383
0.0438951
0.0436434
0.0435063
0.0434338
0.0433959
0.0433756
0.0433633
0.0433534
0.0433544
0.043565
0.0437393
0.0438366
0.0438875
0.0439273
0.0439395
0.0439578
0.0439771
0.0438075
0.0436566
0.0435456
0.0434737
0.0434309
0.0434069
0.043394
0.0433871
0.0433834
0.0433812
0.0433799
0.0433789
0.0433783
0.0433778
0.0433775
0.0433772
0.043377
0.0433767
0.0433767
0.0433766
0.0433765
0.0433765
0.0433765
0.0433765
0.0433764
0.0433764
0.0433764
0.0433764
0.0433764
0.0433764
0.0433764
0.0433764
0.0433764
0.0433764
0.0433764
0.0433764
0.0433764
0.0433757
0.0433361
0.0487152
0.0476886
0.0469677
0.046502
0.0462206
0.0460593
0.0459707
0.0459237
0.0458993
0.0458871
0.0458814
0.0458823
0.0460394
0.0466597
0.0476052
0.0478562
0.0479051
0.0479686
0.0479494
0.0479309
0.0479363
0.0475402
0.0469152
0.046486
0.0462188
0.0460637
0.0459784
0.0459333
0.0459101
0.0458983
0.0458921
0.045889
0.0458872
0.0458862
0.0458855
0.0458852
0.0458849
0.0458846
0.0458845
0.0458844
0.0458843
0.0458843
0.0458843
0.0458842
0.0458842
0.0458842
0.0458842
0.0458842
0.0458842
0.0458842
0.0458842
0.0458842
0.0458842
0.0458842
0.0458842
0.0458842
0.0458842
0.0458842
0.0458837
0.0458572
0.0491368
0.0484456
0.0479596
0.0476454
0.0474555
0.0473466
0.0472868
0.0472551
0.0472389
0.0472315
0.0472297
0.0472498
0.0477314
0.0486528
0.0492688
0.0493693
0.049185
0.0492943
0.0493774
0.0491897
0.0491883
0.0486746
0.0481597
0.0477919
0.0475526
0.0474078
0.0473248
0.0472794
0.0472552
0.0472425
0.0472359
0.0472325
0.0472306
0.0472295
0.0472289
0.0472285
0.0472283
0.0472281
0.047228
0.0472279
0.0472279
0.0472278
0.0472278
0.0472278
0.0472278
0.0472277
0.0472277
0.0472277
0.0472277
0.0472277
0.0472277
0.0472277
0.0472277
0.0472277
0.0472277
0.0472277
0.0472277
0.0472277
0.0472274
0.047209
0.0493808
0.0488847
0.0485361
0.048311
0.048175
0.0480972
0.0480546
0.048032
0.0480206
0.0480156
0.0480149
0.0480324
0.0485177
0.0493305
0.0498179
0.049846
0.0497744
0.0497999
0.0498405
0.0497686
0.0496829
0.0491242
0.0487342
0.0484543
0.0482702
0.0481573
0.0480916
0.0480551
0.0480353
0.0480248
0.0480193
0.0480163
0.0480147
0.0480138
0.0480133
0.048013
0.0480128
0.0480127
0.0480126
0.0480125
0.0480125
0.0480124
0.0480124
0.0480124
0.0480124
0.0480124
0.0480124
0.0480124
0.0480124
0.0480124
0.0480124
0.0480124
0.0480124
0.0480124
0.0480124
0.0480124
0.0480124
0.0480124
0.0480121
0.0479987
0.0495344
0.0491614
0.0488993
0.0487303
0.0486284
0.0485701
0.0485382
0.0485214
0.048513
0.0485093
0.0485087
0.0485204
0.0488817
0.0494575
0.0498795
0.0498859
0.0498721
0.0498493
0.0498851
0.0498711
0.0497525
0.0493417
0.0490535
0.0488441
0.048705
0.0486189
0.0485685
0.0485402
0.0485248
0.0485165
0.0485122
0.0485098
0.0485086
0.0485079
0.0485075
0.0485072
0.0485071
0.048507
0.0485069
0.0485068
0.0485068
0.0485068
0.0485068
0.0485068
0.0485068
0.0485067
0.0485067
0.0485067
0.0485067
0.0485067
0.0485067
0.0485067
0.0485067
0.0485067
0.0485067
0.0485067
0.0485067
0.0485067
0.0485066
0.0484964
0.0496372
0.0493466
0.0491426
0.0490111
0.0489319
0.0488867
0.048862
0.048849
0.0488425
0.0488397
0.0488394
0.0488441
0.0489787
0.0493002
0.0499146
0.0499009
0.0499014
0.0499009
0.0499003
0.0499014
0.049811
0.0494885
0.0492648
0.0491019
0.0489933
0.0489259
0.0488863
0.048864
0.0488518
0.0488453
0.0488418
0.04884
0.048839
0.0488384
0.0488381
0.0488379
0.0488378
0.0488377
0.0488377
0.0488377
0.0488376
0.0488376
0.0488376
0.0488376
0.0488376
0.0488376
0.0488376
0.0488376
0.0488376
0.0488376
0.0488376
0.0488376
0.0488376
0.0488376
0.0488376
0.0488376
0.0488376
0.0488376
0.0488374
0.0488295
0.0497095
0.0494767
0.0493134
0.0492083
0.049145
0.0491089
0.0490892
0.0490789
0.0490737
0.0490715
0.0490714
0.0490751
0.0491722
0.0494011
0.0499268
0.0499218
0.0499217
0.0499216
0.0499215
0.0499218
0.0498499
0.0495915
0.0494123
0.0492819
0.0491948
0.0491407
0.0491088
0.0490908
0.049081
0.0490758
0.049073
0.0490715
0.0490708
0.0490703
0.0490701
0.0490699
0.0490698
0.0490698
0.0490697
0.0490697
0.0490697
0.0490697
0.0490697
0.0490697
0.0490697
0.0490697
0.0490697
0.0490697
0.0490697
0.0490697
0.0490697
0.0490697
0.0490697
0.0490697
0.0490697
0.0490697
0.0490697
0.0490697
0.0490695
0.0490632
0.0497621
0.0495716
0.0494379
0.0493519
0.0493002
0.0492707
0.0492547
0.0492463
0.0492422
0.0492404
0.0492401
0.0492473
0.0494034
0.0496852
0.0499429
0.0499345
0.0499363
0.0499358
0.0499336
0.0499361
0.0498779
0.049666
0.0495189
0.0494119
0.0493407
0.0492965
0.0492704
0.0492558
0.0492478
0.0492435
0.0492413
0.0492401
0.0492395
0.0492392
0.049239
0.0492389
0.0492388
0.0492388
0.0492387
0.0492387
0.0492387
0.0492387
0.0492387
0.0492387
0.0492387
0.0492387
0.0492387
0.0492387
0.0492387
0.0492387
0.0492387
0.0492387
0.0492387
0.0492387
0.0492387
0.0492387
0.0492387
0.0492387
0.0492386
0.0492333
0.0498016
0.0496428
0.0495314
0.0494598
0.0494167
0.0493922
0.0493789
0.049372
0.0493686
0.0493671
0.049367
0.0493727
0.0495339
0.0497789
0.0499486
0.0499561
0.0499484
0.0499542
0.0499556
0.049947
0.0499062
0.0497217
0.0495977
0.0495084
0.0494493
0.0494128
0.0493914
0.0493794
0.0493728
0.0493694
0.0493676
0.0493667
0.0493662
0.0493659
0.0493658
0.0493657
0.0493656
0.0493656
0.0493656
0.0493656
0.0493655
0.0493655
0.0493655
0.0493655
0.0493655
0.0493655
0.0493655
0.0493655
0.0493655
0.0493655
0.0493655
0.0493655
0.0493655
0.0493655
0.0493655
0.0493655
0.0493655
0.0493655
0.0493654
0.0493611
0.0498321
0.0496977
0.0496034
0.0495428
0.0495064
0.0494858
0.0494745
0.0494687
0.0494658
0.0494645
0.0494643
0.0494663
0.0495239
0.049678
0.0499478
0.049923
0.0498979
0.0499353
0.0499232
0.0498997
0.0499037
0.0497519
0.0496519
0.0495792
0.049531
0.0495013
0.0494839
0.0494742
0.049469
0.0494662
0.0494648
0.049464
0.0494636
0.0494634
0.0494633
0.0494633
0.0494632
0.0494632
0.0494632
0.0494632
0.0494632
0.0494632
0.0494632
0.0494631
0.0494631
0.0494631
0.0494631
0.0494631
0.0494631
0.0494631
0.0494631
0.0494631
0.0494631
0.0494631
0.0494631
0.0494631
0.0494631
0.0494631
0.0494631
0.0494594
0.049856
0.0497408
0.04966
0.0496081
0.049577
0.0495593
0.0495497
0.0495446
0.0495421
0.049541
0.0495405
0.0495408
0.0495512
0.0496708
0.0498339
0.0498679
0.0497821
0.0498159
0.0498589
0.0498573
0.0498558
0.0497512
0.0496786
0.0496253
0.0495899
0.049568
0.0495552
0.049548
0.0495442
0.0495421
0.0495411
0.0495405
0.0495402
0.0495401
0.04954
0.04954
0.0495399
0.0495399
0.0495399
0.0495399
0.0495399
0.0495399
0.0495399
0.0495399
0.0495399
0.0495399
0.0495399
0.0495399
0.0495399
0.0495399
0.0495399
0.0495399
0.0495399
0.0495399
0.0495399
0.0495399
0.0495399
0.0495399
0.0495398
0.0495366
0.0498752
0.0497753
0.0497053
0.0496603
0.0496334
0.049618
0.0496097
0.0496054
0.0496032
0.0496021
0.0496016
0.0496014
0.0496026
0.0496259
0.0496516
0.0496643
0.0496597
0.0496653
0.0496699
0.0496729
0.0496739
0.04966
0.0496442
0.0496302
0.0496196
0.0496123
0.0496077
0.0496049
0.0496033
0.0496024
0.0496019
0.0496016
0.0496015
0.0496014
0.0496013
0.0496013
0.0496013
0.0496013
0.0496013
0.0496013
0.0496012
0.0496012
0.0496012
0.0496012
0.0496012
0.0496012
0.0496012
0.0496012
0.0496012
0.0496012
0.0496012
0.0496012
0.0496012
0.0496012
0.0496012
0.0496012
0.0496012
0.0496012
0.0496012
0.0495984
0.0498908
0.0498033
0.049742
0.0497026
0.0496789
0.0496654
0.0496581
0.0496543
0.0496523
0.0496514
0.0496508
0.0496506
0.0496505
0.0496527
0.0496562
0.0496592
0.0496602
0.0496611
0.0496619
0.0496625
0.0496627
0.0496616
0.0496596
0.0496573
0.0496553
0.0496537
0.0496526
0.0496519
0.0496514
0.0496511
0.0496509
0.0496508
0.0496508
0.0496507
0.0496507
0.0496507
0.0496507
0.0496507
0.0496507
0.0496507
0.0496507
0.0496507
0.0496507
0.0496507
0.0496507
0.0496507
0.0496507
0.0496507
0.0496507
0.0496507
0.0496507
0.0496507
0.0496507
0.0496507
0.0496507
0.0496507
0.0496507
0.0496507
0.0496506
0.0496482
0.0499033
0.0498254
0.0497703
0.0497346
0.049713
0.0497005
0.0496937
0.0496901
0.0496882
0.0496872
0.0496867
0.0496865
0.0496863
0.0496864
0.0496869
0.0496876
0.049688
0.0496883
0.0496885
0.0496886
0.0496885
0.0496884
0.0496881
0.0496878
0.0496875
0.0496873
0.049687
0.0496869
0.0496868
0.0496867
0.0496867
0.0496866
0.0496866
0.0496866
0.0496866
0.0496865
0.0496865
0.0496865
0.0496865
0.0496865
0.0496865
0.0496865
0.0496865
0.0496865
0.0496865
0.0496865
0.0496865
0.0496865
0.0496865
0.0496865
0.0496865
0.0496865
0.0496865
0.0496865
0.0496865
0.0496865
0.0496865
0.0496865
0.0496865
0.0496843
0.0499113
0.0498368
0.0497816
0.049744
0.04972
0.0497055
0.0496972
0.0496925
0.0496901
0.0496887
0.0496881
0.0496877
0.0496875
0.0496874
0.0496875
0.0496884
0.049689
0.0496895
0.0496898
0.0496892
0.0496887
0.0496883
0.0496881
0.049688
0.0496878
0.0496878
0.0496877
0.0496877
0.0496876
0.0496876
0.0496876
0.0496876
0.0496875
0.0496875
0.0496875
0.0496875
0.0496875
0.0496875
0.0496875
0.0496875
0.0496875
0.0496875
0.0496875
0.0496875
0.0496875
0.0496875
0.0496875
0.0496875
0.0496875
0.0496875
0.0496875
0.0496875
0.0496875
0.0496875
0.0496875
0.0496875
0.0496875
0.0496875
0.0496874
0.0496853
0.0249397
0.0161544
0.0126575
0.0112261
0.010653
0.0104301
0.0103449
0.0103115
0.0102975
0.0102898
0.0102834
0.010276
0.0102659
0.0102525
0.0102359
0.0102175
0.010201
0.0101891
0.0101861
0.0101932
0.0102074
0.0102267
0.0102461
0.0102626
0.010276
0.010285
0.0102917
0.0102961
0.0102989
0.0103006
0.0103017
0.0103021
0.0103025
0.0103026
0.0103025
0.0103026
0.0103026
0.0103024
0.0103024
0.0103023
0.0103024
0.0103023
0.0103023
0.0103023
0.0103023
0.0103023
0.0103023
0.0103023
0.0103023
0.0103023
0.0103023
0.0103023
0.0103023
0.0103023
0.0103023
0.0103023
0.0103023
0.0103023
0.010302
0.0102718
0.041129
0.0355896
0.0323847
0.0306221
0.0297006
0.0292404
0.0290182
0.028913
0.0288617
0.0288342
0.0288147
0.0287953
0.0287712
0.0287419
0.0287072
0.0286758
0.0286528
0.0286395
0.0286371
0.0286492
0.0286727
0.0287057
0.0287406
0.0287723
0.0287979
0.0288172
0.0288307
0.02884
0.0288464
0.0288503
0.0288524
0.0288539
0.0288542
0.0288545
0.0288546
0.0288546
0.0288546
0.0288544
0.0288544
0.0288542
0.0288541
0.0288541
0.028854
0.028854
0.028854
0.028854
0.028854
0.028854
0.028854
0.028854
0.028854
0.028854
0.028854
0.028854
0.028854
0.028854
0.028854
0.028854
0.0288529
0.0287862
0.0460938
0.0432084
0.0413312
0.0402028
0.0395663
0.0392258
0.0390505
0.0389622
0.0389178
0.038894
0.0388786
0.0388642
0.0388466
0.0388359
0.0388226
0.0388098
0.0388023
0.0387985
0.0387991
0.038812
0.0388307
0.0388457
0.0388592
0.0388715
0.038882
0.0388904
0.0388964
0.0389006
0.0389033
0.0389049
0.0389056
0.038906
0.0389059
0.0389056
0.0389054
0.0389053
0.0389051
0.0389049
0.0389048
0.0389047
0.0389047
0.0389046
0.0389045
0.0389045
0.0389045
0.0389045
0.0389045
0.0389045
0.0389045
0.0389045
0.0389045
0.0389045
0.0389045
0.0389045
0.0389045
0.0389045
0.0389045
0.0389044
0.0389035
0.0388472
0.0479279
0.0463278
0.045246
0.0445739
0.0441834
0.0439682
0.0438542
0.0437957
0.043766
0.0437511
0.0437445
0.0437404
0.043743
0.0439429
0.0441035
0.0441891
0.0442387
0.044261
0.0442694
0.0442812
0.044291
0.044124
0.0439849
0.0438875
0.0438272
0.0437931
0.0437749
0.0437655
0.0437608
0.0437582
0.0437567
0.0437558
0.0437552
0.0437546
0.0437542
0.0437539
0.0437537
0.0437535
0.0437534
0.0437533
0.0437532
0.0437531
0.0437531
0.0437531
0.0437531
0.0437531
0.0437531
0.0437531
0.0437531
0.0437531
0.0437531
0.0437531
0.0437531
0.0437531
0.0437531
0.0437531
0.0437531
0.0437531
0.0437524
0.0437142
0.0487352
0.0477494
0.0470774
0.0466567
0.0464103
0.0462734
0.0462004
0.0461627
0.046144
0.0461369
0.0461379
0.0461524
0.0463297
0.0470314
0.0479035
0.0481097
0.0481523
0.0482109
0.0481827
0.0481752
0.0481862
0.0476933
0.0470743
0.0466647
0.0464193
0.0462822
0.0462094
0.0461723
0.0461537
0.0461444
0.0461397
0.0461373
0.0461359
0.0461351
0.0461346
0.0461343
0.0461341
0.0461339
0.0461337
0.0461337
0.0461336
0.0461336
0.0461335
0.0461335
0.0461335
0.0461335
0.0461335
0.0461335
0.0461335
0.0461335
0.0461335
0.0461335
0.0461335
0.0461335
0.0461335
0.0461335
0.0461335
0.0461335
0.0461331
0.0461077
0.0491505
0.0484873
0.048035
0.0477518
0.047586
0.0474938
0.0474446
0.0474193
0.0474072
0.0474032
0.0474064
0.0474388
0.0480057
0.0489543
0.049604
0.0494651
0.0493175
0.0495169
0.0494695
0.0493351
0.0494592
0.0487836
0.0482579
0.0479002
0.047678
0.047549
0.0474778
0.0474402
0.0474207
0.0474107
0.0474056
0.0474029
0.0474015
0.0474007
0.0474002
0.0473999
0.0473996
0.0473995
0.0473994
0.0473993
0.0473993
0.0473992
0.0473992
0.0473992
0.0473992
0.0473992
0.0473992
0.0473992
0.0473992
0.0473992
0.0473992
0.0473992
0.0473992
0.0473992
0.0473992
0.0473992
0.0473992
0.0473992
0.0473989
0.0473814
0.0493907
0.048915
0.0485907
0.0483879
0.0482694
0.0482036
0.0481686
0.0481506
0.0481419
0.0481386
0.0481397
0.048161
0.0487047
0.0496201
0.0499481
0.0499436
0.0499201
0.0499266
0.0499396
0.0499201
0.0498653
0.049183
0.0487934
0.0485245
0.0483554
0.0482558
0.0482001
0.04817
0.0481541
0.0481459
0.0481416
0.0481394
0.0481381
0.0481374
0.048137
0.0481367
0.0481365
0.0481364
0.0481364
0.0481363
0.0481363
0.0481362
0.0481362
0.0481362
0.0481362
0.0481362
0.0481362
0.0481362
0.0481362
0.0481362
0.0481362
0.0481362
0.0481362
0.0481362
0.0481362
0.0481362
0.0481362
0.0481362
0.048136
0.0481233
0.0495419
0.0491842
0.0489406
0.0487884
0.0486996
0.0486504
0.0486242
0.0486108
0.0486041
0.0486012
0.0486009
0.0486138
0.0490228
0.0497192
0.0499414
0.0499276
0.0498774
0.0499104
0.0499265
0.049876
0.0498777
0.0493879
0.0490985
0.0488966
0.0487685
0.0486926
0.0486498
0.0486266
0.0486142
0.0486078
0.0486044
0.0486026
0.0486016
0.048601
0.0486007
0.0486005
0.0486003
0.0486003
0.0486002
0.0486002
0.0486001
0.0486001
0.0486001
0.0486001
0.0486001
0.0486001
0.0486001
0.0486001
0.0486001
0.0486001
0.0486001
0.0486001
0.0486001
0.0486001
0.0486001
0.0486001
0.0486001
0.0486001
0.0485999
0.0485903
0.0496431
0.0493645
0.0491749
0.0490565
0.0489875
0.0489494
0.0489291
0.0489187
0.0489134
0.0489111
0.0489106
0.0489194
0.0491816
0.0497041
0.0499334
0.04992
0.0499056
0.0499108
0.0499186
0.0499045
0.0499051
0.0495242
0.0492997
0.0491427
0.0490427
0.0489833
0.0489496
0.0489313
0.0489216
0.0489164
0.0489137
0.0489123
0.0489115
0.0489111
0.0489108
0.0489107
0.0489106
0.0489105
0.0489104
0.0489104
0.0489104
0.0489104
0.0489104
0.0489104
0.0489104
0.0489104
0.0489104
0.0489104
0.0489104
0.0489104
0.0489104
0.0489104
0.0489104
0.0489104
0.0489104
0.0489104
0.0489104
0.0489104
0.0489102
0.0489027
0.0497142
0.0494911
0.0493393
0.0492447
0.0491896
0.0491591
0.049143
0.0491347
0.0491305
0.0491286
0.0491283
0.0491356
0.0493368
0.0497408
0.04994
0.0499263
0.0499247
0.049925
0.0499251
0.0499239
0.0499241
0.0496197
0.04944
0.0493143
0.0492342
0.0491865
0.0491595
0.0491448
0.0491369
0.0491328
0.0491306
0.0491295
0.0491289
0.0491285
0.0491283
0.0491282
0.0491281
0.0491281
0.049128
0.049128
0.049128
0.049128
0.049128
0.049128
0.049128
0.049128
0.049128
0.049128
0.049128
0.049128
0.049128
0.049128
0.049128
0.049128
0.049128
0.049128
0.049128
0.049128
0.0491279
0.0491218
0.049766
0.0495834
0.0494592
0.0493818
0.0493367
0.0493119
0.0492987
0.049292
0.0492887
0.0492873
0.0492871
0.0492942
0.0495008
0.0498437
0.0499627
0.0499542
0.0499393
0.0499453
0.0499537
0.0499384
0.0499385
0.0496882
0.0495407
0.049438
0.0493727
0.0493339
0.0493119
0.0492999
0.0492936
0.0492902
0.0492885
0.0492876
0.0492871
0.0492868
0.0492867
0.0492866
0.0492865
0.0492865
0.0492865
0.0492864
0.0492864
0.0492864
0.0492864
0.0492864
0.0492864
0.0492864
0.0492864
0.0492864
0.0492864
0.0492864
0.0492864
0.0492864
0.0492864
0.0492864
0.0492864
0.0492864
0.0492864
0.0492864
0.0492863
0.0492814
0.0498049
0.0496526
0.0495491
0.0494847
0.0494472
0.0494266
0.0494157
0.0494101
0.0494074
0.0494064
0.0494064
0.0494129
0.0495944
0.0498887
0.0499933
0.0499708
0.0499502
0.0499702
0.0499698
0.0499491
0.049959
0.049738
0.0496146
0.0495295
0.0494758
0.0494439
0.049426
0.0494162
0.049411
0.0494084
0.049407
0.0494062
0.0494059
0.0494056
0.0494055
0.0494055
0.0494054
0.0494054
0.0494054
0.0494054
0.0494053
0.0494053
0.0494053
0.0494053
0.0494053
0.0494053
0.0494053
0.0494053
0.0494053
0.0494053
0.0494053
0.0494053
0.0494053
0.0494053
0.0494053
0.0494053
0.0494053
0.0494053
0.0494052
0.0494011
0.0498348
0.049706
0.0496184
0.0495639
0.0495323
0.0495148
0.0495056
0.049501
0.0494987
0.0494977
0.0494974
0.049501
0.0496268
0.0498604
0.0499879
0.0499684
0.0499582
0.0499619
0.0499682
0.0499587
0.0499749
0.0497734
0.0496703
0.0495995
0.0495548
0.0495285
0.0495136
0.0495056
0.0495014
0.0494992
0.0494981
0.0494975
0.0494972
0.0494971
0.049497
0.0494969
0.0494969
0.0494969
0.0494969
0.0494969
0.0494968
0.0494968
0.0494968
0.0494968
0.0494968
0.0494968
0.0494968
0.0494968
0.0494968
0.0494968
0.0494968
0.0494968
0.0494968
0.0494968
0.0494968
0.0494968
0.0494968
0.0494968
0.0494968
0.0494933
0.0498584
0.0497479
0.0496729
0.0496262
0.0495991
0.0495842
0.0495763
0.0495723
0.0495703
0.0495694
0.0495689
0.049569
0.0495957
0.0497247
0.0498703
0.049882
0.0498641
0.0498734
0.0498804
0.049875
0.0498848
0.0497674
0.0496952
0.0496442
0.0496116
0.0495922
0.0495812
0.0495753
0.0495721
0.0495705
0.0495697
0.0495693
0.049569
0.0495689
0.0495689
0.0495688
0.0495688
0.0495688
0.0495688
0.0495688
0.0495688
0.0495688
0.0495688
0.0495688
0.0495688
0.0495688
0.0495688
0.0495688
0.0495688
0.0495688
0.0495688
0.0495688
0.0495688
0.0495688
0.0495688
0.0495688
0.0495688
0.0495688
0.0495687
0.0495657
0.0498772
0.0497815
0.0497165
0.049676
0.0496526
0.0496396
0.0496328
0.0496294
0.0496276
0.0496268
0.0496263
0.0496259
0.0496283
0.0496495
0.0496718
0.0496837
0.0496875
0.04969
0.0496917
0.0496928
0.0496927
0.0496789
0.0496638
0.049651
0.0496416
0.0496353
0.0496314
0.0496292
0.0496279
0.0496272
0.0496268
0.0496266
0.0496265
0.0496264
0.0496263
0.0496263
0.0496263
0.0496263
0.0496263
0.0496263
0.0496263
0.0496263
0.0496263
0.0496263
0.0496263
0.0496263
0.0496263
0.0496263
0.0496263
0.0496263
0.0496263
0.0496263
0.0496263
0.0496263
0.0496263
0.0496263
0.0496263
0.0496263
0.0496262
0.0496236
0.0498925
0.0498087
0.0497518
0.0497163
0.0496957
0.0496844
0.0496784
0.0496754
0.0496738
0.0496731
0.0496726
0.0496723
0.0496725
0.0496743
0.0496781
0.0496811
0.0496827
0.0496836
0.0496841
0.0496838
0.0496834
0.0496821
0.0496801
0.0496781
0.0496764
0.0496751
0.0496742
0.0496736
0.0496732
0.049673
0.0496729
0.0496728
0.0496727
0.0496727
0.0496727
0.0496727
0.0496727
0.0496727
0.0496727
0.0496727
0.0496727
0.0496727
0.0496727
0.0496726
0.0496726
0.0496726
0.0496726
0.0496726
0.0496726
0.0496726
0.0496726
0.0496726
0.0496726
0.0496726
0.0496726
0.0496726
0.0496726
0.0496726
0.0496726
0.0496703
0.0499049
0.0498302
0.0497791
0.049747
0.0497282
0.0497178
0.0497122
0.0497093
0.0497079
0.0497071
0.0497067
0.0497065
0.0497065
0.0497066
0.0497077
0.0497086
0.0497091
0.0497095
0.0497097
0.0497092
0.0497087
0.0497083
0.049708
0.0497077
0.0497075
0.0497073
0.0497071
0.049707
0.0497069
0.0497068
0.0497068
0.0497068
0.0497067
0.0497067
0.0497067
0.0497067
0.0497067
0.0497067
0.0497067
0.0497067
0.0497067
0.0497067
0.0497067
0.0497067
0.0497067
0.0497067
0.0497067
0.0497067
0.0497067
0.0497067
0.0497067
0.0497067
0.0497067
0.0497067
0.0497067
0.0497067
0.0497067
0.0497067
0.0497066
0.0497046
0.0499127
0.0498412
0.0497898
0.0497559
0.0497349
0.0497227
0.0497159
0.0497122
0.0497103
0.0497093
0.0497088
0.0497085
0.0497085
0.0497085
0.0497092
0.0497097
0.0497101
0.0497103
0.0497105
0.04971
0.0497095
0.0497091
0.0497089
0.0497087
0.0497087
0.0497086
0.0497086
0.0497085
0.0497085
0.0497085
0.0497085
0.0497085
0.0497084
0.0497084
0.0497084
0.0497084
0.0497084
0.0497084
0.0497084
0.0497084
0.0497084
0.0497084
0.0497084
0.0497084
0.0497084
0.0497084
0.0497084
0.0497084
0.0497084
0.0497084
0.0497084
0.0497084
0.0497084
0.0497084
0.0497084
0.0497084
0.0497084
0.0497084
0.0497084
0.0497063
0.0249413
0.0161605
0.0126694
0.0112437
0.0106745
0.010454
0.0103702
0.0103378
0.0103245
0.0103176
0.010312
0.0103056
0.0102968
0.0102849
0.0102695
0.0102521
0.0102362
0.0102247
0.0102211
0.0102264
0.0102387
0.0102564
0.0102745
0.0102904
0.0103031
0.0103119
0.0103182
0.0103223
0.010325
0.0103268
0.0103277
0.0103282
0.0103285
0.0103288
0.0103287
0.0103287
0.0103288
0.0103286
0.0103286
0.0103285
0.0103286
0.0103286
0.0103285
0.0103285
0.0103285
0.0103285
0.0103285
0.0103285
0.0103285
0.0103285
0.0103285
0.0103285
0.0103285
0.0103285
0.0103285
0.0103285
0.0103285
0.0103285
0.0103282
0.010298
0.041137
0.0356142
0.0324309
0.0306891
0.0297844
0.0293362
0.029122
0.0290215
0.0289735
0.0289483
0.0289314
0.0289144
0.028893
0.0288655
0.0288329
0.0288027
0.0287804
0.0287668
0.0287629
0.0287709
0.0287904
0.0288205
0.0288539
0.0288845
0.0289097
0.0289286
0.0289422
0.0289517
0.0289579
0.028962
0.0289642
0.0289656
0.0289662
0.0289665
0.0289667
0.0289665
0.0289666
0.0289664
0.0289665
0.0289663
0.0289662
0.0289662
0.0289661
0.0289661
0.0289661
0.0289661
0.0289661
0.0289661
0.0289661
0.0289661
0.0289661
0.0289661
0.0289661
0.0289661
0.0289661
0.0289661
0.0289661
0.0289661
0.0289651
0.0288985
0.0461008
0.0432311
0.0413742
0.0402657
0.039646
0.0393175
0.0391503
0.0390672
0.0390261
0.039005
0.0389922
0.0389805
0.0389649
0.0389543
0.0389421
0.0389294
0.0389214
0.0389167
0.0389155
0.038922
0.0389358
0.038949
0.038963
0.0389761
0.0389877
0.0389972
0.0390041
0.0390091
0.0390122
0.0390142
0.0390151
0.0390156
0.0390157
0.0390154
0.0390153
0.0390152
0.039015
0.0390149
0.0390148
0.0390147
0.0390146
0.0390146
0.0390145
0.0390145
0.0390145
0.0390145
0.0390145
0.0390145
0.0390145
0.0390145
0.0390145
0.0390145
0.0390145
0.0390145
0.0390145
0.0390145
0.0390145
0.0390144
0.0390135
0.0389578
0.0479326
0.0463433
0.0452759
0.0446183
0.0442398
0.0440336
0.0439257
0.0438711
0.0438441
0.0438329
0.0438309
0.0438322
0.043836
0.0440238
0.0441881
0.0442639
0.0443062
0.0443249
0.0443298
0.0443341
0.0443407
0.0441777
0.0440445
0.0439524
0.0438966
0.043866
0.0438503
0.0438426
0.0438388
0.0438369
0.0438358
0.0438351
0.0438346
0.0438341
0.0438337
0.0438335
0.0438333
0.0438331
0.0438331
0.0438329
0.0438329
0.0438328
0.0438328
0.0438328
0.0438328
0.0438328
0.0438328
0.0438328
0.0438328
0.0438328
0.0438328
0.0438328
0.0438328
0.0438328
0.0438328
0.0438328
0.0438328
0.0438328
0.0438321
0.0437945
0.0487383
0.0477597
0.0470974
0.0466864
0.0464482
0.0463175
0.0462486
0.0462136
0.0461973
0.0461923
0.0461972
0.0462209
0.046398
0.0470888
0.0479763
0.0481263
0.0481475
0.0481748
0.0481683
0.0481666
0.0481852
0.0477126
0.0470989
0.0466957
0.0464568
0.0463253
0.0462567
0.0462223
0.0462054
0.0461972
0.0461931
0.0461909
0.0461898
0.0461891
0.0461886
0.0461883
0.0461881
0.0461879
0.0461878
0.0461878
0.0461877
0.0461877
0.0461877
0.0461876
0.0461876
0.0461876
0.0461876
0.0461876
0.0461876
0.0461876
0.0461876
0.0461876
0.0461876
0.0461876
0.0461876
0.0461876
0.0461876
0.0461876
0.0461872
0.0461623
0.0491526
0.0484945
0.0480488
0.0477723
0.0476122
0.0475243
0.047478
0.0474545
0.0474437
0.0474412
0.0474474
0.0474896
0.0480639
0.0489782
0.0496171
0.0494644
0.0493126
0.0494948
0.0494631
0.0493342
0.0496382
0.0487997
0.0482708
0.0479165
0.0476996
0.0475758
0.0475086
0.0474737
0.0474559
0.047447
0.0474424
0.0474401
0.0474388
0.0474381
0.0474376
0.0474374
0.0474371
0.047437
0.0474369
0.0474369
0.0474368
0.0474368
0.0474368
0.0474367
0.0474367
0.0474367
0.0474367
0.0474367
0.0474367
0.0474367
0.0474367
0.0474367
0.0474367
0.0474367
0.0474367
0.0474367
0.0474367
0.0474367
0.0474364
0.0474193
0.0493922
0.0489202
0.0486008
0.0484028
0.0482884
0.0482257
0.0481927
0.0481759
0.0481679
0.0481651
0.0481668
0.0481896
0.0487329
0.0496714
0.0499043
0.0498652
0.0498208
0.049838
0.0498654
0.0498214
0.049969
0.0491746
0.0487911
0.0485297
0.0483673
0.0482731
0.0482212
0.0481936
0.0481794
0.048172
0.0481682
0.0481662
0.0481651
0.0481645
0.0481641
0.0481639
0.0481637
0.0481636
0.0481635
0.0481635
0.0481635
0.0481634
0.0481634
0.0481634
0.0481634
0.0481634
0.0481634
0.0481634
0.0481634
0.0481634
0.0481634
0.0481634
0.0481634
0.0481634
0.0481634
0.0481634
0.0481634
0.0481634
0.0481632
0.0481507
0.0495431
0.0491881
0.0489482
0.0487997
0.048714
0.0486671
0.0486424
0.0486298
0.0486234
0.0486203
0.0486188
0.0486282
0.049039
0.0497394
0.0497281
0.0496531
0.0496465
0.0496546
0.049647
0.0496568
0.0498697
0.0493847
0.0490977
0.0489004
0.0487773
0.0487054
0.0486656
0.0486444
0.0486332
0.0486275
0.0486244
0.0486228
0.048622
0.0486214
0.0486212
0.048621
0.0486208
0.0486207
0.0486207
0.0486207
0.0486206
0.0486206
0.0486206
0.0486206
0.0486206
0.0486206
0.0486206
0.0486206
0.0486206
0.0486206
0.0486206
0.0486206
0.0486206
0.0486206
0.0486206
0.0486206
0.0486206
0.0486206
0.0486204
0.048611
0.049644
0.0493676
0.0491808
0.0490653
0.0489988
0.0489624
0.0489433
0.0489334
0.0489283
0.0489255
0.0489236
0.0489293
0.0492472
0.0497755
0.0497913
0.0497264
0.0497177
0.0497141
0.0497069
0.0497254
0.0498995
0.0495226
0.0492996
0.0491459
0.0490496
0.0489933
0.048962
0.0489452
0.0489364
0.0489318
0.0489294
0.0489281
0.0489274
0.048927
0.0489268
0.0489266
0.0489265
0.0489265
0.0489264
0.0489264
0.0489264
0.0489264
0.0489264
0.0489264
0.0489264
0.0489264
0.0489264
0.0489264
0.0489264
0.0489264
0.0489264
0.0489264
0.0489264
0.0489264
0.0489264
0.0489264
0.0489264
0.0489263
0.0489262
0.0489189
0.0497149
0.0494936
0.0493441
0.0492518
0.0491986
0.0491695
0.0491543
0.0491465
0.0491425
0.0491402
0.0491388
0.0491441
0.049399
0.0498182
0.0498367
0.0497862
0.0497759
0.0497722
0.0497674
0.0497804
0.0499201
0.0496183
0.0494397
0.0493167
0.0492396
0.0491945
0.0491694
0.0491559
0.0491488
0.0491451
0.0491432
0.0491422
0.0491416
0.0491413
0.0491411
0.049141
0.0491409
0.0491409
0.0491408
0.0491408
0.0491408
0.0491408
0.0491408
0.0491408
0.0491408
0.0491408
0.0491408
0.0491408
0.0491408
0.0491408
0.0491408
0.0491408
0.0491408
0.0491408
0.0491408
0.0491408
0.0491408
0.0491408
0.0491407
0.0491348
0.0497666
0.0495854
0.0494631
0.0493876
0.0493441
0.0493204
0.049308
0.0493017
0.0492986
0.049297
0.0492962
0.0493012
0.0495145
0.0498537
0.0498629
0.0498212
0.0498204
0.0498183
0.0498123
0.049825
0.0499352
0.0496863
0.04954
0.0494397
0.0493771
0.0493404
0.04932
0.049309
0.0493033
0.0493003
0.0492988
0.049298
0.0492975
0.0492973
0.0492972
0.0492971
0.049297
0.049297
0.0492969
0.0492969
0.0492969
0.0492969
0.0492969
0.0492969
0.0492969
0.0492969
0.0492969
0.0492969
0.0492969
0.0492969
0.0492969
0.0492969
0.0492969
0.0492969
0.0492969
0.0492969
0.0492969
0.0492969
0.0492968
0.049292
0.0498054
0.0496543
0.0495524
0.0494895
0.0494534
0.0494337
0.0494234
0.0494182
0.0494157
0.0494146
0.0494145
0.0494207
0.0496002
0.0498855
0.0499352
0.0498907
0.0498724
0.0499027
0.0498888
0.0498739
0.0499691
0.0497355
0.0496139
0.0495311
0.0494795
0.0494494
0.0494328
0.0494238
0.0494192
0.0494168
0.0494155
0.0494149
0.0494146
0.0494144
0.0494143
0.0494142
0.0494141
0.0494141
0.0494141
0.0494141
0.0494141
0.0494141
0.0494141
0.0494141
0.0494141
0.0494141
0.0494141
0.0494141
0.0494141
0.0494141
0.0494141
0.0494141
0.0494141
0.0494141
0.0494141
0.0494141
0.0494141
0.0494141
0.049414
0.04941
0.0498353
0.0497074
0.0496212
0.049568
0.0495375
0.0495208
0.0495122
0.0495078
0.0495057
0.0495047
0.0495042
0.0495074
0.0496572
0.0498988
0.0499932
0.0499659
0.0499537
0.0499589
0.0499656
0.0499541
0.0499904
0.0497747
0.0496723
0.0496025
0.049559
0.0495337
0.0495197
0.0495122
0.0495084
0.0495064
0.0495054
0.0495049
0.0495046
0.0495045
0.0495044
0.0495043
0.0495043
0.0495043
0.0495043
0.0495043
0.0495042
0.0495042
0.0495042
0.0495042
0.0495042
0.0495042
0.0495042
0.0495042
0.0495042
0.0495042
0.0495042
0.0495042
0.0495042
0.0495042
0.0495042
0.0495042
0.0495042
0.0495042
0.0495042
0.0495008
0.0498587
0.0497492
0.0496753
0.0496297
0.0496036
0.0495893
0.0495819
0.0495782
0.0495764
0.0495754
0.0495747
0.0495743
0.0496029
0.0497312