/*--------------------------------*- C++ -*----------------------------------*\
  =========                 |
  \\      /  F ield         | OpenFOAM: The Open Source CFD Toolbox
   \\    /   O peration     | Website:  https://openfoam.org
    \\  /    A nd           | Version:  13
     \\/     M anipulation  |
\*---------------------------------------------------------------------------*/
FoamFile
{
    format      ascii;
    class       volScalarField;
    location    "5";
    object      p;
}
// * * * * * * * * * * * * * * * * * * * * * * * * * * * * * * * * * * * * * //

dimensions      [0 2 -2 0 0 0 0];

internalField   nonuniform List<scalar> 
54636
(
-6.38013e-13
-6.58663e-13
-6.55024e-13
-6.46667e-13
-6.22056e-13
-6.57415e-13
-6.46365e-13
-6.13575e-13
-6.52665e-13
-6.33928e-13
-5.84608e-13
-5.77501e-13
-5.44863e-13
-5.49639e-13
-5.39376e-13
-5.25201e-13
-5.48742e-13
-5.11055e-13
-5.11554e-13
-5.35914e-13
-5.5774e-13
-5.44392e-13
-5.51338e-13
-5.17639e-13
-5.11462e-13
-5.37717e-13
-5.46527e-13
-5.3998e-13
-5.72256e-13
-5.8671e-13
-5.93076e-13
-5.88519e-13
-5.67075e-13
-6.15384e-13
-5.9543e-13
-6.38961e-13
-6.40639e-13
-5.93734e-13
-6.04208e-13
-5.77414e-13
-5.3107e-13
-5.47419e-13
-5.36231e-13
-5.14139e-13
-4.94123e-13
-4.85558e-13
-4.55895e-13
-4.19517e-13
-4.05205e-13
-3.796e-13
-3.40893e-13
-2.98898e-13
-2.71023e-13
-2.10433e-13
-1.76314e-13
-1.55758e-13
-1.19432e-13
-9.47074e-14
-6.11626e-14
-6.00008e-15
-6.29605e-13
-6.59718e-13
-6.51784e-13
-6.48888e-13
-6.16864e-13
-6.56848e-13
-6.59931e-13
-6.16468e-13
-6.57353e-13
-6.13167e-13
-5.88747e-13
-5.71163e-13
-5.59499e-13
-5.38742e-13
-5.29535e-13
-5.26849e-13
-5.402e-13
-5.10502e-13
-5.1226e-13
-5.38311e-13
-5.54773e-13
-5.51641e-13
-5.45495e-13
-5.3539e-13
-5.18732e-13
-5.40496e-13
-5.46656e-13
-5.35509e-13
-5.64602e-13
-5.90518e-13
-5.81219e-13
-5.7622e-13
-5.76021e-13
-6.13087e-13
-6.09211e-13
-6.34586e-13
-6.46902e-13
-5.84536e-13
-6.01195e-13
-5.72477e-13
-5.40605e-13
-5.45727e-13
-5.48414e-13
-5.15386e-13
-4.8851e-13
-4.86518e-13
-4.61274e-13
-4.24039e-13
-4.06513e-13
-3.7849e-13
-3.39477e-13
-2.96016e-13
-2.61765e-13
-2.17817e-13
-1.85194e-13
-1.59113e-13
-1.12028e-13
-8.63419e-14
-6.00228e-14
-1.72753e-14
-6.22051e-13
-6.54698e-13
-6.59636e-13
-6.41897e-13
-6.13609e-13
-6.58647e-13
-6.59479e-13
-6.19037e-13
-6.57681e-13
-6.13334e-13
-5.76649e-13
-5.77253e-13
-5.71317e-13
-5.30152e-13
-5.32104e-13
-5.20408e-13
-5.37451e-13
-5.00758e-13
-4.97964e-13
-5.395e-13
-5.85007e-13
-5.55424e-13
-5.42471e-13
-5.36418e-13
-5.29217e-13
-5.31558e-13
-5.48914e-13
-5.44903e-13
-5.46829e-13
-5.88419e-13
-5.76404e-13
-5.71337e-13
-5.92579e-13
-6.08089e-13
-6.22325e-13
-6.42519e-13
-6.31115e-13
-5.71586e-13
-5.98852e-13
-5.68593e-13
-5.44861e-13
-5.36547e-13
-5.49822e-13
-5.24264e-13
-4.87592e-13
-4.77465e-13
-4.61593e-13
-4.41083e-13
-4.14528e-13
-3.82883e-13
-3.31686e-13
-2.97929e-13
-2.53859e-13
-2.26958e-13
-1.82864e-13
-1.57432e-13
-1.1734e-13
-8.47497e-14
-5.85123e-14
-2.10949e-14
-6.27382e-13
-6.47475e-13
-6.64354e-13
-6.4095e-13
-6.24104e-13
-6.5851e-13
-6.45244e-13
-6.45495e-13
-6.54244e-13
-5.89147e-13
-5.78056e-13
-5.77471e-13
-5.81772e-13
-5.14323e-13
-5.3668e-13
-5.10986e-13
-5.34891e-13
-5.26455e-13
-4.97114e-13
-5.32397e-13
-5.88637e-13
-5.53827e-13
-5.42718e-13
-5.39263e-13
-5.43791e-13
-5.37037e-13
-5.38048e-13
-5.35658e-13
-5.36267e-13
-6.00904e-13
-5.62389e-13
-5.82243e-13
-6.06797e-13
-6.02528e-13
-6.26605e-13
-6.45042e-13
-6.18896e-13
-5.76078e-13
-5.9582e-13
-5.76993e-13
-5.33192e-13
-5.3173e-13
-5.44678e-13
-5.35707e-13
-4.93392e-13
-4.79278e-13
-4.59914e-13
-4.4781e-13
-4.19603e-13
-3.91276e-13
-3.41836e-13
-2.81237e-13
-2.42062e-13
-2.33695e-13
-1.81021e-13
-1.59201e-13
-1.16103e-13
-8.52461e-14
-5.60978e-14
-1.33936e-14
-5.93923e-13
-6.51914e-13
-6.65954e-13
-6.53755e-13
-6.40301e-13
-6.57348e-13
-6.367e-13
-6.33291e-13
-6.63484e-13
-5.97844e-13
-5.70306e-13
-5.77987e-13
-5.87986e-13
-5.30126e-13
-5.21638e-13
-5.06921e-13
-5.39703e-13
-5.26572e-13
-4.88045e-13
-5.09927e-13
-5.64763e-13
-5.44564e-13
-5.43142e-13
-5.46734e-13
-5.38988e-13
-5.40274e-13
-5.33838e-13
-5.24559e-13
-5.48455e-13
-5.85843e-13
-5.81245e-13
-5.86399e-13
-6.04953e-13
-6.04326e-13
-6.28688e-13
-6.37862e-13
-6.25446e-13
-5.68177e-13
-5.87039e-13
-5.6418e-13
-5.39032e-13
-5.24338e-13
-5.38205e-13
-5.37024e-13
-5.046e-13
-4.91233e-13
-4.68368e-13
-4.49167e-13
-4.12837e-13
-3.79115e-13
-3.46178e-13
-2.97348e-13
-2.39833e-13
-2.20823e-13
-1.79509e-13
-1.60816e-13
-1.18607e-13
-8.73291e-14
-4.16699e-14
-3.64788e-16
-5.92585e-13
-6.57604e-13
-6.64433e-13
-6.4999e-13
-6.3332e-13
-6.63892e-13
-6.54584e-13
-6.32482e-13
-6.48315e-13
-5.94146e-13
-5.77e-13
-5.63869e-13
-5.94517e-13
-5.48959e-13
-5.10269e-13
-5.02822e-13
-5.18661e-13
-5.20844e-13
-4.59444e-13
-5.51119e-13
-5.27744e-13
-5.2954e-13
-5.41149e-13
-5.62368e-13
-5.60174e-13
-5.27796e-13
-5.44591e-13
-5.02393e-13
-5.46147e-13
-5.86711e-13
-5.79913e-13
-5.842e-13
-6.28094e-13
-6.19134e-13
-6.20296e-13
-6.22922e-13
-5.91012e-13
-5.82222e-13
-6.11087e-13
-5.6425e-13
-5.35116e-13
-5.14167e-13
-5.3825e-13
-5.49671e-13
-5.08942e-13
-4.99142e-13
-4.58637e-13
-4.40709e-13
-4.14814e-13
-3.77696e-13
-3.46399e-13
-3.07932e-13
-2.43524e-13
-2.16245e-13
-1.85238e-13
-1.54092e-13
-1.07093e-13
-8.06289e-14
-4.99753e-14
-1.12369e-14
-5.91025e-13
-6.60565e-13
-6.6049e-13
-6.60509e-13
-6.39843e-13
-6.31481e-13
-6.57587e-13
-6.49151e-13
-6.46678e-13
-5.98596e-13
-5.72867e-13
-5.72595e-13
-5.85021e-13
-5.88201e-13
-4.86043e-13
-5.36993e-13
-5.00556e-13
-5.2801e-13
-4.69173e-13
-5.53677e-13
-5.27811e-13
-5.49991e-13
-5.57865e-13
-5.38792e-13
-5.47121e-13
-5.36324e-13
-5.32171e-13
-5.16901e-13
-5.56663e-13
-5.89601e-13
-5.68775e-13
-6.02677e-13
-6.28437e-13
-6.29069e-13
-6.19392e-13
-6.12495e-13
-6.02128e-13
-5.84349e-13
-5.91553e-13
-5.5578e-13
-5.31884e-13
-5.20491e-13
-5.38085e-13
-5.54405e-13
-5.15513e-13
-4.98634e-13
-4.68511e-13
-4.43512e-13
-4.37432e-13
-3.66384e-13
-3.41587e-13
-3.14673e-13
-2.39655e-13
-1.98863e-13
-1.73531e-13
-1.52885e-13
-9.93059e-14
-7.99806e-14
-5.90392e-14
-1.04078e-14
-6.10095e-13
-6.41079e-13
-6.57082e-13
-6.66267e-13
-6.51873e-13
-6.46099e-13
-6.30952e-13
-6.39166e-13
-6.32595e-13
-5.95449e-13
-5.79493e-13
-5.71247e-13
-6.12221e-13
-6.02395e-13
-5.26543e-13
-5.13633e-13
-5.05612e-13
-4.72446e-13
-4.90492e-13
-4.71748e-13
-5.48752e-13
-5.44729e-13
-5.56687e-13
-5.22482e-13
-5.44618e-13
-5.39721e-13
-5.46987e-13
-5.30196e-13
-5.42966e-13
-5.9407e-13
-5.71629e-13
-5.95295e-13
-6.33093e-13
-6.29364e-13
-6.19409e-13
-6.03881e-13
-5.97431e-13
-5.90731e-13
-5.91716e-13
-5.64076e-13
-5.38947e-13
-5.18082e-13
-5.44592e-13
-5.41071e-13
-5.05405e-13
-5.08443e-13
-4.6908e-13
-4.50201e-13
-4.43576e-13
-3.71331e-13
-3.40843e-13
-3.15854e-13
-2.3947e-13
-1.82628e-13
-1.60813e-13
-1.4976e-13
-1.04629e-13
-7.77728e-14
-5.02841e-14
-8.29258e-15
-6.096e-13
-6.23418e-13
-6.41081e-13
-6.80658e-13
-6.55585e-13
-6.56552e-13
-6.37079e-13
-6.25596e-13
-6.24683e-13
-5.99657e-13
-5.98451e-13
-5.51487e-13
-5.91273e-13
-6.13061e-13
-5.09484e-13
-5.51906e-13
-4.52916e-13
-4.89985e-13
-5.10205e-13
-4.46622e-13
-5.68584e-13
-5.39548e-13
-5.47358e-13
-5.19164e-13
-5.43957e-13
-5.38681e-13
-5.37589e-13
-5.56404e-13
-5.49802e-13
-5.87815e-13
-5.7535e-13
-6.13286e-13
-6.29671e-13
-6.14168e-13
-6.18982e-13
-6.11881e-13
-5.95043e-13
-5.95057e-13
-5.94927e-13
-5.60718e-13
-5.31219e-13
-5.17059e-13
-5.37665e-13
-5.35634e-13
-5.08688e-13
-5.05709e-13
-4.63055e-13
-4.52992e-13
-4.43569e-13
-3.72716e-13
-3.36812e-13
-3.08097e-13
-2.42547e-13
-1.83857e-13
-1.68656e-13
-1.49463e-13
-1.05234e-13
-7.72374e-14
-3.97972e-14
1.2284e-15
-5.98795e-13
-6.27101e-13
-6.41931e-13
-6.8095e-13
-6.64697e-13
-6.40874e-13
-6.36374e-13
-6.22636e-13
-6.22218e-13
-5.85973e-13
-6.08838e-13
-5.67347e-13
-5.59616e-13
-5.98877e-13
-5.6378e-13
-5.41062e-13
-4.54397e-13
-5.09918e-13
-4.7842e-13
-5.30144e-13
-5.7888e-13
-5.51423e-13
-5.45119e-13
-5.34333e-13
-5.36329e-13
-5.37061e-13
-5.09735e-13
-5.66548e-13
-5.6179e-13
-5.96688e-13
-5.73358e-13
-6.02785e-13
-6.46778e-13
-6.28447e-13
-5.90424e-13
-6.05791e-13
-5.89011e-13
-6.05605e-13
-5.79228e-13
-5.68262e-13
-5.31662e-13
-5.07647e-13
-5.25042e-13
-5.35794e-13
-5.23955e-13
-5.02066e-13
-4.58013e-13
-4.58964e-13
-4.34559e-13
-3.66274e-13
-3.31405e-13
-2.92304e-13
-2.44389e-13
-2.03229e-13
-1.73901e-13
-1.3007e-13
-1.00865e-13
-7.74921e-14
-3.61318e-14
-6.4843e-15
-6.08005e-13
-6.30269e-13
-6.52553e-13
-6.73893e-13
-6.83373e-13
-6.20883e-13
-6.32405e-13
-6.18881e-13
-6.18712e-13
-5.89053e-13
-5.93003e-13
-5.85133e-13
-5.67433e-13
-5.62182e-13
-5.74639e-13
-5.20813e-13
-4.43785e-13
-5.53876e-13
-4.92116e-13
-5.38511e-13
-5.59786e-13
-5.53951e-13
-5.48545e-13
-5.30909e-13
-5.31609e-13
-5.42257e-13
-5.16943e-13
-5.42113e-13
-5.71523e-13
-6.06371e-13
-5.88834e-13
-5.99045e-13
-6.44395e-13
-6.16728e-13
-5.83003e-13
-5.99785e-13
-6.0274e-13
-6.14048e-13
-5.85999e-13
-5.54314e-13
-5.37994e-13
-5.21324e-13
-5.23212e-13
-5.51321e-13
-5.17169e-13
-4.9794e-13
-4.81848e-13
-4.62895e-13
-4.09633e-13
-3.50303e-13
-3.39432e-13
-2.96757e-13
-2.46519e-13
-2.06159e-13
-1.71766e-13
-1.15436e-13
-9.80449e-14
-7.13106e-14
-2.48779e-14
-4.41597e-15
-6.01289e-13
-6.46456e-13
-6.62402e-13
-6.63356e-13
-6.87075e-13
-6.29853e-13
-6.34699e-13
-6.04562e-13
-6.16096e-13
-5.93154e-13
-5.90408e-13
-5.98013e-13
-5.43916e-13
-5.41514e-13
-5.03696e-13
-4.89441e-13
-4.47785e-13
-6.24237e-13
-4.56333e-13
-5.41653e-13
-5.09851e-13
-5.57983e-13
-5.71973e-13
-5.08291e-13
-5.33525e-13
-5.38319e-13
-5.21314e-13
-5.48888e-13
-5.78224e-13
-6.00959e-13
-5.93753e-13
-6.04857e-13
-6.3756e-13
-6.03841e-13
-5.83637e-13
-5.97391e-13
-6.31628e-13
-6.03297e-13
-5.61314e-13
-5.4812e-13
-5.56902e-13
-5.44106e-13
-5.35234e-13
-5.44182e-13
-5.06639e-13
-4.88822e-13
-4.90651e-13
-4.66527e-13
-4.07494e-13
-3.56081e-13
-3.30341e-13
-3.11947e-13
-2.47149e-13
-1.97229e-13
-1.62937e-13
-1.14366e-13
-1.15367e-13
-7.13168e-14
-7.92842e-15
3.02317e-15
-6.076e-13
-6.41975e-13
-6.71055e-13
-6.6461e-13
-6.91096e-13
-6.34246e-13
-6.29821e-13
-6.04048e-13
-5.99492e-13
-6.00304e-13
-6.02771e-13
-5.98858e-13
-5.3458e-13
-5.31807e-13
-5.16883e-13
-5.54615e-13
-4.84953e-13
-5.54045e-13
-4.80532e-13
-4.91497e-13
-5.45352e-13
-5.475e-13
-5.60436e-13
-5.11064e-13
-5.37342e-13
-5.3457e-13
-5.36426e-13
-5.34129e-13
-5.7546e-13
-5.90944e-13
-5.92316e-13
-6.10411e-13
-6.4098e-13
-6.11001e-13
-5.89745e-13
-6.00263e-13
-6.35909e-13
-5.81797e-13
-5.61144e-13
-5.41231e-13
-5.46714e-13
-5.49811e-13
-5.39382e-13
-5.41261e-13
-5.23507e-13
-5.08082e-13
-4.949e-13
-4.47491e-13
-4.03361e-13
-3.64378e-13
-3.3302e-13
-3.11875e-13
-2.25411e-13
-1.72539e-13
-1.71457e-13
-1.24704e-13
-1.2508e-13
-7.20596e-14
-8.9699e-15
5.68596e-15
-6.33563e-13
-6.37307e-13
-6.74072e-13
-6.58214e-13
-6.71018e-13
-6.47973e-13
-6.35951e-13
-6.04884e-13
-5.93077e-13
-5.93212e-13
-5.9636e-13
-5.8533e-13
-5.54616e-13
-5.44735e-13
-5.78856e-13
-5.42182e-13
-5.07713e-13
-5.62657e-13
-4.9564e-13
-5.5008e-13
-5.2115e-13
-5.34451e-13
-5.60063e-13
-5.05369e-13
-5.22804e-13
-5.3229e-13
-5.51542e-13
-5.51732e-13
-5.67395e-13
-5.80579e-13
-5.94422e-13
-6.09234e-13
-6.24618e-13
-6.04137e-13
-6.15132e-13
-6.23616e-13
-6.19813e-13
-5.74312e-13
-5.65297e-13
-5.42926e-13
-5.41658e-13
-5.2448e-13
-5.5101e-13
-5.5015e-13
-5.22516e-13
-4.96725e-13
-4.99371e-13
-4.5349e-13
-4.12779e-13
-3.62498e-13
-3.30041e-13
-3.00743e-13
-2.24711e-13
-1.82257e-13
-1.64986e-13
-1.2449e-13
-1.19038e-13
-6.45533e-14
-1.2968e-14
5.70052e-15
-6.4391e-13
-6.41548e-13
-6.79579e-13
-6.68082e-13
-6.61199e-13
-6.36403e-13
-6.48445e-13
-6.01469e-13
-5.76635e-13
-5.82727e-13
-5.96722e-13
-6.13842e-13
-5.39497e-13
-5.51286e-13
-5.71097e-13
-5.21344e-13
-5.23867e-13
-5.6353e-13
-5.36969e-13
-5.339e-13
-5.03395e-13
-5.45357e-13
-5.57819e-13
-5.22612e-13
-5.30111e-13
-5.31836e-13
-5.34738e-13
-5.69665e-13
-5.65071e-13
-5.76579e-13
-5.74413e-13
-6.11163e-13
-6.2267e-13
-6.04644e-13
-6.27081e-13
-6.40818e-13
-6.10367e-13
-5.69569e-13
-5.46135e-13
-5.43878e-13
-5.36021e-13
-5.44605e-13
-5.67592e-13
-5.46069e-13
-5.19393e-13
-4.91711e-13
-4.926e-13
-4.57453e-13
-4.24567e-13
-3.63259e-13
-3.32201e-13
-2.95201e-13
-2.15739e-13
-1.71487e-13
-1.64207e-13
-1.37825e-13
-1.23568e-13
-6.10756e-14
-1.43874e-14
5.91157e-15
-6.50581e-13
-6.59444e-13
-6.69905e-13
-6.67904e-13
-6.45984e-13
-6.53442e-13
-6.4784e-13
-6.01871e-13
-5.64504e-13
-5.78103e-13
-5.82204e-13
-6.17634e-13
-5.38651e-13
-5.84817e-13
-5.56915e-13
-5.24456e-13
-5.21234e-13
-5.661e-13
-5.37429e-13
-5.37012e-13
-4.99539e-13
-5.59908e-13
-5.41467e-13
-5.16088e-13
-5.38362e-13
-5.33251e-13
-5.38961e-13
-5.71807e-13
-5.75243e-13
-5.79304e-13
-5.66126e-13
-6.04853e-13
-6.24887e-13
-5.89198e-13
-6.44577e-13
-6.50474e-13
-6.12606e-13
-5.58311e-13
-5.45596e-13
-5.44509e-13
-5.36184e-13
-5.48702e-13
-5.56775e-13
-5.44782e-13
-5.25668e-13
-5.10293e-13
-4.84658e-13
-4.52614e-13
-4.16029e-13
-3.63007e-13
-3.28234e-13
-2.90856e-13
-2.32779e-13
-1.89552e-13
-1.54024e-13
-1.27054e-13
-1.10425e-13
-5.17263e-14
-1.30074e-14
8.00796e-16
-6.53131e-13
-6.63915e-13
-6.50383e-13
-6.80199e-13
-6.58976e-13
-6.40015e-13
-6.48426e-13
-5.96987e-13
-5.69393e-13
-5.57489e-13
-6.00911e-13
-6.22401e-13
-5.44431e-13
-5.88935e-13
-5.5666e-13
-5.29402e-13
-5.15589e-13
-5.52783e-13
-5.59121e-13
-5.28103e-13
-5.11647e-13
-5.55063e-13
-5.29044e-13
-5.08196e-13
-5.50452e-13
-5.33804e-13
-5.45228e-13
-5.65862e-13
-5.76089e-13
-5.84945e-13
-5.5956e-13
-6.19887e-13
-6.12945e-13
-5.85483e-13
-6.50342e-13
-6.52616e-13
-5.93535e-13
-5.51673e-13
-5.54933e-13
-5.52196e-13
-5.31972e-13
-5.43327e-13
-5.52179e-13
-5.46362e-13
-5.28728e-13
-5.08739e-13
-4.77773e-13
-4.49334e-13
-4.32964e-13
-3.60937e-13
-3.30317e-13
-2.88686e-13
-2.36944e-13
-2.06208e-13
-1.43901e-13
-1.18103e-13
-9.83219e-14
-5.50871e-14
-6.14608e-15
5.97849e-15
-6.37528e-13
-6.6879e-13
-6.61299e-13
-6.85218e-13
-6.71019e-13
-6.29381e-13
-6.48598e-13
-5.94345e-13
-5.62839e-13
-5.67921e-13
-5.97425e-13
-6.15632e-13
-5.82145e-13
-5.61492e-13
-5.73376e-13
-5.28533e-13
-5.00534e-13
-5.76661e-13
-5.32073e-13
-5.39711e-13
-5.08515e-13
-5.43003e-13
-5.30083e-13
-5.07827e-13
-5.6391e-13
-5.5349e-13
-5.28785e-13
-5.4935e-13
-5.75095e-13
-5.89863e-13
-5.63084e-13
-6.34306e-13
-6.22066e-13
-5.63667e-13
-6.50184e-13
-6.77996e-13
-5.89631e-13
-5.48355e-13
-5.5047e-13
-5.41672e-13
-5.39244e-13
-5.56208e-13
-5.41864e-13
-5.48309e-13
-5.30811e-13
-5.05281e-13
-4.7913e-13
-4.48967e-13
-4.26924e-13
-3.57533e-13
-3.39955e-13
-2.85358e-13
-2.35411e-13
-2.13337e-13
-1.49772e-13
-1.05406e-13
-9.5837e-14
-6.94411e-14
-6.36397e-15
7.17597e-15
-6.34603e-13
-6.59246e-13
-6.63087e-13
-6.41021e-13
-6.16525e-13
-6.49351e-13
-6.41083e-13
-6.40123e-13
-6.51946e-13
-6.25377e-13
-5.84714e-13
-5.72932e-13
-5.53836e-13
-5.40209e-13
-5.34107e-13
-5.37668e-13
-5.46492e-13
-5.07577e-13
-5.18501e-13
-5.30363e-13
-5.67005e-13
-5.37428e-13
-5.46988e-13
-5.22474e-13
-5.31407e-13
-5.36223e-13
-5.35246e-13
-5.34357e-13
-5.67902e-13
-5.90277e-13
-5.88589e-13
-5.87767e-13
-5.67376e-13
-6.20735e-13
-6.02927e-13
-6.15111e-13
-6.33097e-13
-6.0795e-13
-6.00038e-13
-5.72414e-13
-5.31484e-13
-5.57895e-13
-5.45212e-13
-5.17026e-13
-4.8935e-13
-4.81963e-13
-4.5834e-13
-4.27175e-13
-4.04382e-13
-3.76682e-13
-3.33723e-13
-3.01556e-13
-2.73413e-13
-2.13117e-13
-1.74129e-13
-1.51097e-13
-1.20669e-13
-9.51659e-14
-6.60417e-14
-1.13025e-14
-6.40478e-13
-6.52811e-13
-6.5251e-13
-6.41567e-13
-6.18303e-13
-6.4987e-13
-6.47642e-13
-6.29244e-13
-6.58067e-13
-6.15517e-13
-5.88964e-13
-5.64437e-13
-5.68557e-13
-5.30309e-13
-5.31535e-13
-5.34241e-13
-5.41208e-13
-5.10049e-13
-5.14578e-13
-5.37338e-13
-5.66961e-13
-5.33535e-13
-5.54159e-13
-5.25741e-13
-5.3082e-13
-5.43973e-13
-5.38591e-13
-5.41515e-13
-5.55797e-13
-5.88091e-13
-5.80126e-13
-5.797e-13
-5.78012e-13
-6.19477e-13
-6.07857e-13
-6.2181e-13
-6.30349e-13
-6.0545e-13
-5.9509e-13
-5.69092e-13
-5.40149e-13
-5.45237e-13
-5.53672e-13
-5.22219e-13
-4.84647e-13
-4.85516e-13
-4.60432e-13
-4.29355e-13
-4.03667e-13
-3.75496e-13
-3.40873e-13
-2.96274e-13
-2.66554e-13
-2.16321e-13
-1.82997e-13
-1.54418e-13
-1.20399e-13
-8.85428e-14
-6.25271e-14
-1.87414e-14
-6.41352e-13
-6.50636e-13
-6.52231e-13
-6.45769e-13
-6.12968e-13
-6.59e-13
-6.57376e-13
-6.23607e-13
-6.50192e-13
-6.16015e-13
-5.81725e-13
-5.73107e-13
-5.7917e-13
-5.28841e-13
-5.28095e-13
-5.30903e-13
-5.30671e-13
-5.07411e-13
-5.06206e-13
-5.36895e-13
-5.74482e-13
-5.4439e-13
-5.55273e-13
-5.37022e-13
-5.30617e-13
-5.41675e-13
-5.44755e-13
-5.45871e-13
-5.483e-13
-5.70186e-13
-5.82547e-13
-5.77856e-13
-5.91932e-13
-6.03961e-13
-6.26218e-13
-6.31725e-13
-6.30156e-13
-5.82402e-13
-6.00588e-13
-5.74297e-13
-5.36386e-13
-5.32722e-13
-5.50132e-13
-5.24927e-13
-4.94704e-13
-4.77232e-13
-4.6264e-13
-4.45478e-13
-4.10012e-13
-3.78544e-13
-3.30167e-13
-2.9185e-13
-2.55593e-13
-2.29115e-13
-1.77085e-13
-1.58048e-13
-1.2326e-13
-8.25394e-14
-5.81332e-14
-2.1441e-14
-6.31722e-13
-6.4628e-13
-6.6342e-13
-6.4218e-13
-6.18863e-13
-6.62248e-13
-6.48228e-13
-6.39338e-13
-6.4957e-13
-5.96434e-13
-5.87806e-13
-5.82574e-13
-5.80126e-13
-5.15471e-13
-5.28003e-13
-5.18378e-13
-5.31957e-13
-5.26639e-13
-4.90922e-13
-5.48007e-13
-5.67045e-13
-5.48796e-13
-5.59581e-13
-5.38153e-13
-5.34514e-13
-5.36421e-13
-5.47488e-13
-5.33523e-13
-5.49269e-13
-5.81817e-13
-5.69844e-13
-5.72096e-13
-6.10046e-13
-6.03955e-13
-6.31388e-13
-6.36468e-13
-6.21429e-13
-5.83062e-13
-5.92995e-13
-5.69877e-13
-5.37922e-13
-5.30682e-13
-5.4458e-13
-5.37561e-13
-5.02584e-13
-4.74903e-13
-4.57864e-13
-4.46225e-13
-4.17943e-13
-3.87885e-13
-3.32189e-13
-2.86493e-13
-2.44104e-13
-2.37725e-13
-1.74951e-13
-1.5327e-13
-1.22253e-13
-8.37061e-14
-5.20563e-14
-1.70182e-14
-6.15642e-13
-6.41274e-13
-6.67086e-13
-6.54263e-13
-6.42525e-13
-6.56684e-13
-6.47978e-13
-6.30982e-13
-6.53164e-13
-5.87363e-13
-5.75605e-13
-5.87891e-13
-5.73599e-13
-5.40465e-13
-5.12645e-13
-5.13447e-13
-5.32132e-13
-5.24199e-13
-5.02337e-13
-5.26522e-13
-5.6773e-13
-5.44445e-13
-5.53355e-13
-5.4428e-13
-5.38803e-13
-5.33353e-13
-5.40031e-13
-5.28367e-13
-5.58026e-13
-5.76725e-13
-5.74716e-13
-5.76321e-13
-6.07868e-13
-6.05587e-13
-6.28139e-13
-6.43353e-13
-6.16677e-13
-5.76003e-13
-5.89032e-13
-5.66003e-13
-5.40665e-13
-5.27032e-13
-5.33805e-13
-5.44374e-13
-5.08004e-13
-4.87071e-13
-4.66266e-13
-4.46677e-13
-4.08438e-13
-3.80827e-13
-3.44107e-13
-2.92987e-13
-2.4329e-13
-2.23668e-13
-1.69418e-13
-1.60952e-13
-1.24676e-13
-7.94033e-14
-4.60744e-14
-7.43736e-15
-6.00376e-13
-6.50172e-13
-6.69074e-13
-6.49468e-13
-6.43898e-13
-6.49867e-13
-6.47838e-13
-6.31578e-13
-6.51872e-13
-5.99748e-13
-5.78238e-13
-5.72185e-13
-5.8807e-13
-5.61884e-13
-4.89981e-13
-5.28462e-13
-5.29656e-13
-5.47788e-13
-4.79485e-13
-5.49264e-13
-5.40446e-13
-5.45111e-13
-5.34024e-13
-5.50922e-13
-5.52946e-13
-5.31696e-13
-5.46643e-13
-5.20974e-13
-5.58728e-13
-5.77447e-13
-5.73159e-13
-5.804e-13
-6.14271e-13
-6.17803e-13
-6.30197e-13
-6.25386e-13
-5.98734e-13
-5.9364e-13
-5.87294e-13
-5.66413e-13
-5.43638e-13
-5.18851e-13
-5.3002e-13
-5.47878e-13
-5.11664e-13
-4.92894e-13
-4.64958e-13
-4.41053e-13
-4.17471e-13
-3.78161e-13
-3.44627e-13
-2.99304e-13
-2.4859e-13
-2.14994e-13
-1.71189e-13
-1.56686e-13
-1.14932e-13
-7.88368e-14
-4.94157e-14
-4.00639e-15
-5.93316e-13
-6.56354e-13
-6.64035e-13
-6.62698e-13
-6.40091e-13
-6.4148e-13
-6.41419e-13
-6.32022e-13
-6.52647e-13
-6.00386e-13
-5.78449e-13
-5.70769e-13
-5.68025e-13
-6.07727e-13
-5.0453e-13
-5.33289e-13
-5.26036e-13
-5.33289e-13
-4.84453e-13
-5.42269e-13
-5.21363e-13
-5.55936e-13
-5.39296e-13
-5.39964e-13
-5.41079e-13
-5.43218e-13
-5.47796e-13
-5.25738e-13
-5.53718e-13
-5.77296e-13
-5.76797e-13
-5.90318e-13
-6.17598e-13
-6.28923e-13
-6.22426e-13
-6.16928e-13
-6.08267e-13
-5.9461e-13
-5.80646e-13
-5.52561e-13
-5.48656e-13
-5.19108e-13
-5.19797e-13
-5.52342e-13
-5.17328e-13
-5.0251e-13
-4.71903e-13
-4.39482e-13
-4.32817e-13
-3.7737e-13
-3.38715e-13
-3.09583e-13
-2.46439e-13
-2.00024e-13
-1.66176e-13
-1.5632e-13
-1.07788e-13
-7.82315e-14
-4.79547e-14
-7.98498e-16
-6.06133e-13
-6.49163e-13
-6.52191e-13
-6.64034e-13
-6.49049e-13
-6.38683e-13
-6.34602e-13
-6.3467e-13
-6.37457e-13
-5.96817e-13
-5.95213e-13
-5.66991e-13
-5.7212e-13
-5.95901e-13
-4.96934e-13
-5.35827e-13
-4.89718e-13
-5.0888e-13
-5.00503e-13
-4.9937e-13
-5.62514e-13
-5.4556e-13
-5.43848e-13
-5.31307e-13
-5.34836e-13
-5.43215e-13
-5.4773e-13
-5.33699e-13
-5.49641e-13
-5.85031e-13
-5.75266e-13
-5.93307e-13
-6.29006e-13
-6.29021e-13
-6.07155e-13
-6.20216e-13
-6.04308e-13
-5.9285e-13
-5.90343e-13
-5.49037e-13
-5.4599e-13
-5.21431e-13
-5.25433e-13
-5.47035e-13
-5.16687e-13
-5.06211e-13
-4.7278e-13
-4.47644e-13
-4.40104e-13
-3.75003e-13
-3.34898e-13
-3.07649e-13
-2.46776e-13
-1.85628e-13
-1.60719e-13
-1.51421e-13
-1.07312e-13
-8.30431e-14
-4.18437e-14
-1.44845e-15
-6.15449e-13
-6.24844e-13
-6.38998e-13
-6.77983e-13
-6.67764e-13
-6.3853e-13
-6.36885e-13
-6.18745e-13
-6.23662e-13
-6.08711e-13
-6.05307e-13
-5.56404e-13
-5.83564e-13
-5.94113e-13
-5.33029e-13
-5.35235e-13
-4.98249e-13
-5.1052e-13
-4.99355e-13
-4.85365e-13
-5.76387e-13
-5.43824e-13
-5.46009e-13
-5.2673e-13
-5.36604e-13
-5.5696e-13
-5.33435e-13
-5.45148e-13
-5.55045e-13
-5.79455e-13
-5.86848e-13
-6.03496e-13
-6.32659e-13
-6.14268e-13
-6.12021e-13
-6.18021e-13
-6.01673e-13
-6.01039e-13
-5.71928e-13
-5.55687e-13
-5.38566e-13
-5.20548e-13
-5.30461e-13
-5.42193e-13
-5.10668e-13
-5.03841e-13
-4.66223e-13
-4.5096e-13
-4.37351e-13
-3.75401e-13
-3.36841e-13
-3.07162e-13
-2.44863e-13
-1.84077e-13
-1.6432e-13
-1.46561e-13
-1.04435e-13
-8.15852e-14
-3.99149e-14
-2.95927e-15
-6.04859e-13
-6.33291e-13
-6.43349e-13
-6.63073e-13
-6.71428e-13
-6.43313e-13
-6.25883e-13
-6.14894e-13
-6.25542e-13
-6.06786e-13
-5.93539e-13
-5.68547e-13
-5.75142e-13
-5.97645e-13
-5.36326e-13
-5.07705e-13
-4.45116e-13
-5.22149e-13
-4.92785e-13
-5.36943e-13
-5.60053e-13
-5.49896e-13
-5.5563e-13
-5.34642e-13
-5.35329e-13
-5.50659e-13
-5.11697e-13
-5.61964e-13
-5.61946e-13
-5.88564e-13
-5.86388e-13
-6.02518e-13
-6.23577e-13
-6.27854e-13
-6.02832e-13
-6.12364e-13
-5.94787e-13
-5.99119e-13
-5.75305e-13
-5.68109e-13
-5.34918e-13
-5.17586e-13
-5.13075e-13
-5.54014e-13
-5.13295e-13
-5.04982e-13
-4.6465e-13
-4.52603e-13
-4.24314e-13
-3.70204e-13
-3.34549e-13
-2.94984e-13
-2.46717e-13
-1.9562e-13
-1.63859e-13
-1.34464e-13
-1.07482e-13
-7.98948e-14
-2.69879e-14
-9.06888e-15
-6.18756e-13
-6.31398e-13
-6.41741e-13
-6.64365e-13
-6.74678e-13
-6.33829e-13
-6.26441e-13
-6.11587e-13
-6.19072e-13
-6.00231e-13
-5.85554e-13
-5.86849e-13
-5.72792e-13
-5.55489e-13
-6.02859e-13
-5.21478e-13
-4.70754e-13
-5.40249e-13
-4.95021e-13
-5.28947e-13
-5.61408e-13
-5.47038e-13
-5.59174e-13
-5.2896e-13
-5.35148e-13
-5.42934e-13
-5.14177e-13
-5.49033e-13
-5.79131e-13
-5.96659e-13
-5.91176e-13
-5.9476e-13
-6.33526e-13
-6.22161e-13
-5.92278e-13
-5.97845e-13
-6.17442e-13
-5.90588e-13
-5.83403e-13
-5.57444e-13
-5.28184e-13
-5.26885e-13
-5.21325e-13
-5.51712e-13
-5.16331e-13
-5.0595e-13
-4.78515e-13
-4.60309e-13
-4.05191e-13
-3.63917e-13
-3.40083e-13
-2.94027e-13
-2.43766e-13
-1.87833e-13
-1.6432e-13
-1.3054e-13
-1.08513e-13
-7.40025e-14
-1.94184e-14
-5.62742e-15
-6.24539e-13
-6.36784e-13
-6.56065e-13
-6.61048e-13
-6.7894e-13
-6.33323e-13
-6.39325e-13
-6.00637e-13
-6.07707e-13
-5.96519e-13
-5.88956e-13
-5.9652e-13
-5.58118e-13
-5.43665e-13
-5.73811e-13
-5.1709e-13
-4.92303e-13
-5.91184e-13
-4.66762e-13
-5.12027e-13
-4.76085e-13
-5.46161e-13
-5.65253e-13
-5.17667e-13
-5.41423e-13
-5.43356e-13
-5.14145e-13
-5.43244e-13
-5.84286e-13
-5.93535e-13
-5.89764e-13
-6.09356e-13
-6.33998e-13
-6.0452e-13
-5.9464e-13
-5.94327e-13
-6.30925e-13
-6.0128e-13
-5.67897e-13
-5.50862e-13
-5.35431e-13
-5.38875e-13
-5.37538e-13
-5.36436e-13
-5.15354e-13
-5.06798e-13
-4.86146e-13
-4.56195e-13
-4.08155e-13
-3.71015e-13
-3.33918e-13
-2.97902e-13
-2.35503e-13
-1.91911e-13
-1.5346e-13
-1.2599e-13
-1.13891e-13
-7.47076e-14
-1.86014e-14
-6.31777e-15
-6.2042e-13
-6.43086e-13
-6.60305e-13
-6.60983e-13
-6.84044e-13
-6.34081e-13
-6.36231e-13
-6.0388e-13
-5.93127e-13
-6.02691e-13
-5.94284e-13
-5.89175e-13
-5.38226e-13
-5.20246e-13
-5.16662e-13
-5.43271e-13
-4.91374e-13
-5.90637e-13
-5.01346e-13
-5.21111e-13
-5.17971e-13
-5.40309e-13
-5.63115e-13
-5.06466e-13
-5.41893e-13
-5.40375e-13
-5.28703e-13
-5.38624e-13
-5.68865e-13
-5.90248e-13
-5.97668e-13
-6.05248e-13
-6.3489e-13
-6.05602e-13
-6.01848e-13
-6.12074e-13
-6.26336e-13
-5.89873e-13
-5.65274e-13
-5.42817e-13
-5.32771e-13
-5.41455e-13
-5.45284e-13
-5.41254e-13
-5.22774e-13
-5.05028e-13
-4.87864e-13
-4.53042e-13
-4.09338e-13
-3.61496e-13
-3.2618e-13
-3.04422e-13
-2.2836e-13
-1.84406e-13
-1.60554e-13
-1.28925e-13
-1.18726e-13
-6.76149e-14
-1.92824e-14
-4.50799e-15
-6.43111e-13
-6.34152e-13
-6.64219e-13
-6.66909e-13
-6.73072e-13
-6.42918e-13
-6.22149e-13
-6.15226e-13
-5.85622e-13
-5.89463e-13
-5.98595e-13
-5.78593e-13
-5.59566e-13
-5.25275e-13
-5.92e-13
-5.46798e-13
-5.08582e-13
-5.38686e-13
-5.06698e-13
-5.44866e-13
-5.34282e-13
-5.412e-13
-5.51542e-13
-5.10893e-13
-5.32858e-13
-5.36743e-13
-5.48819e-13
-5.50757e-13
-5.62237e-13
-5.79238e-13
-5.95608e-13
-6.02815e-13
-6.29698e-13
-6.10752e-13
-6.15121e-13
-6.26811e-13
-6.23932e-13
-5.79156e-13
-5.61906e-13
-5.37065e-13
-5.31989e-13
-5.44288e-13
-5.5275e-13
-5.42993e-13
-5.22681e-13
-5.00069e-13
-4.90836e-13
-4.56563e-13
-4.12873e-13
-3.61752e-13
-3.27323e-13
-2.95969e-13
-2.29503e-13
-1.79945e-13
-1.61717e-13
-1.27347e-13
-1.14903e-13
-6.71005e-14
-1.77131e-14
2.87623e-15
-6.52981e-13
-6.42565e-13
-6.65169e-13
-6.76222e-13
-6.64991e-13
-6.41293e-13
-6.30477e-13
-6.05141e-13
-5.81602e-13
-5.81145e-13
-6.02843e-13
-5.85836e-13
-5.48417e-13
-5.55332e-13
-5.81822e-13
-5.35169e-13
-5.32161e-13
-5.3776e-13
-5.28247e-13
-5.42125e-13
-5.02787e-13
-5.50923e-13
-5.57451e-13
-5.17036e-13
-5.34818e-13
-5.28194e-13
-5.43832e-13
-5.5833e-13
-5.80811e-13
-5.78285e-13
-5.73989e-13
-5.97165e-13
-6.31944e-13
-6.06317e-13
-6.21772e-13
-6.37433e-13
-6.08922e-13
-5.78221e-13
-5.53247e-13
-5.41581e-13
-5.42188e-13
-5.46281e-13
-5.58402e-13
-5.45609e-13
-5.23211e-13
-4.95873e-13
-4.8907e-13
-4.54588e-13
-4.18808e-13
-3.655e-13
-3.25727e-13
-2.9729e-13
-2.24675e-13
-1.70376e-13
-1.55833e-13
-1.34986e-13
-1.24438e-13
-6.38778e-14
-1.53338e-14
5.79779e-15
-6.62595e-13
-6.55862e-13
-6.56086e-13
-6.81362e-13
-6.53686e-13
-6.41324e-13
-6.44675e-13
-5.95753e-13
-5.73269e-13
-5.65099e-13
-5.86396e-13
-6.11127e-13
-5.46656e-13
-5.82699e-13
-5.64878e-13
-5.31198e-13
-5.24363e-13
-5.46908e-13
-5.35822e-13
-5.43006e-13
-5.08979e-13
-5.52648e-13
-5.48017e-13
-5.16555e-13
-5.45192e-13
-5.29837e-13
-5.44288e-13
-5.55366e-13
-5.74081e-13
-5.78424e-13
-5.74567e-13
-6.11603e-13
-6.15519e-13
-6.04434e-13
-6.31837e-13
-6.40126e-13
-6.15247e-13
-5.72985e-13
-5.52695e-13
-5.41999e-13
-5.35449e-13
-5.45876e-13
-5.58983e-13
-5.42868e-13
-5.26311e-13
-5.02466e-13
-4.79872e-13
-4.51959e-13
-4.21712e-13
-3.68421e-13
-3.29551e-13
-2.88045e-13
-2.29765e-13
-1.84181e-13
-1.54465e-13
-1.29317e-13
-1.07492e-13
-5.34958e-14
-1.89169e-14
-1.66349e-16
-6.5803e-13
-6.62821e-13
-6.52722e-13
-6.86096e-13
-6.59075e-13
-6.42622e-13
-6.44632e-13
-5.8903e-13
-5.69259e-13
-5.57164e-13
-5.98671e-13
-6.12942e-13
-5.63197e-13
-5.73677e-13
-5.6434e-13
-5.29355e-13
-5.16428e-13
-5.63296e-13
-5.38716e-13
-5.37424e-13
-5.16907e-13
-5.54218e-13
-5.31282e-13
-5.0943e-13
-5.54199e-13
-5.39789e-13
-5.42948e-13
-5.44031e-13
-5.75628e-13
-5.84935e-13
-5.67375e-13
-6.23414e-13
-6.07566e-13
-6.10532e-13
-6.47789e-13
-6.47654e-13
-5.9324e-13
-5.62255e-13
-5.57363e-13
-5.5943e-13
-5.3394e-13
-5.37e-13
-5.52015e-13
-5.45981e-13
-5.27621e-13
-5.06248e-13
-4.73487e-13
-4.43594e-13
-4.23079e-13
-3.73773e-13
-3.37071e-13
-2.91994e-13
-2.30102e-13
-1.95531e-13
-1.51746e-13
-1.17e-13
-9.39079e-14
-6.06612e-14
-1.19761e-14
-9.70149e-16
-6.52555e-13
-6.68778e-13
-6.58772e-13
-6.83988e-13
-6.64243e-13
-6.28707e-13
-6.43588e-13
-5.92249e-13
-5.57472e-13
-5.676e-13
-5.93683e-13
-6.0562e-13
-5.76805e-13
-5.80493e-13
-5.59062e-13
-5.29579e-13
-5.11936e-13
-5.76523e-13
-5.20244e-13
-5.39289e-13
-5.22775e-13
-5.42031e-13
-5.2559e-13
-5.13517e-13
-5.62153e-13
-5.50316e-13
-5.33181e-13
-5.41409e-13
-5.67235e-13
-5.97107e-13
-5.70079e-13
-6.2661e-13
-6.15796e-13
-6.01593e-13
-6.62119e-13
-6.42467e-13
-5.81763e-13
-5.70845e-13
-5.51781e-13
-5.44711e-13
-5.46306e-13
-5.44372e-13
-5.45403e-13
-5.44279e-13
-5.31661e-13
-5.00757e-13
-4.72029e-13
-4.49506e-13
-4.14314e-13
-3.68713e-13
-3.44494e-13
-2.88448e-13
-2.31904e-13
-2.14757e-13
-1.48991e-13
-1.00747e-13
-9.52357e-14
-6.30564e-14
-7.42336e-15
-5.13384e-15
-6.33014e-13
-6.61336e-13
-6.57743e-13
-6.40955e-13
-6.17204e-13
-6.48728e-13
-6.47258e-13
-6.43446e-13
-6.52224e-13
-6.29316e-13
-5.75576e-13
-5.75299e-13
-5.58985e-13
-5.3177e-13
-5.25789e-13
-5.57417e-13
-5.53908e-13
-5.05455e-13
-5.08117e-13
-5.2646e-13
-5.68184e-13
-5.40799e-13
-5.41743e-13
-5.26076e-13
-5.45908e-13
-5.41394e-13
-5.24489e-13
-5.46133e-13
-5.60715e-13
-5.73613e-13
-5.92899e-13
-5.87951e-13
-5.84042e-13
-6.13892e-13
-6.0658e-13
-6.15071e-13
-6.22861e-13
-6.16148e-13
-5.9819e-13
-5.69341e-13
-5.283e-13
-5.53201e-13
-5.40663e-13
-5.19717e-13
-4.88839e-13
-4.81611e-13
-4.60491e-13
-4.35233e-13
-4.02718e-13
-3.70661e-13
-3.34428e-13
-2.98753e-13
-2.68123e-13
-2.17934e-13
-1.77993e-13
-1.41214e-13
-1.27205e-13
-9.72699e-14
-6.65541e-14
-1.12527e-14
-6.47883e-13
-6.51511e-13
-6.55247e-13
-6.42779e-13
-6.17055e-13
-6.49806e-13
-6.50484e-13
-6.31558e-13
-6.55524e-13
-6.17636e-13
-5.78492e-13
-5.72119e-13
-5.67461e-13
-5.34278e-13
-5.27397e-13
-5.4091e-13
-5.39597e-13
-5.13535e-13
-5.12948e-13
-5.38086e-13
-5.66448e-13
-5.38012e-13
-5.41224e-13
-5.31587e-13
-5.47449e-13
-5.443e-13
-5.30061e-13
-5.44761e-13
-5.5034e-13
-5.75085e-13
-5.86261e-13
-5.80922e-13
-5.91336e-13
-6.16586e-13
-6.09063e-13
-6.12668e-13
-6.30578e-13
-6.14868e-13
-5.97968e-13
-5.58951e-13
-5.294e-13
-5.42951e-13
-5.53997e-13
-5.23655e-13
-4.84648e-13
-4.85657e-13
-4.58976e-13
-4.36589e-13
-4.00848e-13
-3.71699e-13
-3.41818e-13
-2.99038e-13
-2.64448e-13
-2.24123e-13