/*--------------------------------*- C++ -*----------------------------------*\
  =========                 |
  \\      /  F ield         | OpenFOAM: The Open Source CFD Toolbox
   \\    /   O peration     | Website:  https://openfoam.org
    \\  /    A nd           | Version:  13
     \\/     M anipulation  |
\*---------------------------------------------------------------------------*/
FoamFile
{
    format      ascii;
    class       volVectorField;
    location    "5";
    object      U;
}
// * * * * * * * * * * * * * * * * * * * * * * * * * * * * * * * * * * * * * //

dimensions      [0 1 -1 0 0 0 0];

internalField   nonuniform List<vector> 
54636
(
(20 -2.64747e-16 -3.03048e-16)
(20 -9.0102e-17 -3.38027e-16)
(20 -3.37479e-16 2.89509e-16)
(20 -3.73737e-17 8.88958e-17)
(20 -2.6462e-18 1.759e-16)
(20 -3.23027e-16 -2.42086e-16)
(20 -1.89791e-17 -7.09146e-16)
(20 1.31164e-16 7.01333e-16)
(20 5.55301e-16 5.36112e-16)
(20 -3.29424e-16 -4.76964e-17)
(20 -6.20136e-18 -1.04876e-16)
(20 -3.19463e-16 -4.44957e-16)
(20 8.66133e-16 7.66135e-17)
(20 4.22306e-16 -5.83711e-16)
(20 -3.28624e-16 -7.99181e-16)
(20 -2.6719e-16 3.24733e-16)
(20 -8.7487e-16 1.60112e-16)
(20 -7.38126e-16 6.14956e-17)
(20 -1.71374e-16 5.79496e-16)
(20 -1.74113e-17 3.8281e-17)
(20 -3.74476e-16 5.65427e-16)
(20 3.94816e-17 2.45074e-16)
(20 -3.73921e-16 -6.85135e-17)
(20 2.9314e-16 -5.76524e-17)
(20 2.59813e-16 7.73028e-16)
(20 3.4309e-16 5.10787e-16)
(20 7.20364e-16 -2.00958e-16)
(20 5.00712e-16 -4.46067e-16)
(20 -3.12761e-16 -5.30863e-16)
(20 6.4567e-18 5.19693e-17)
(20 -2.61471e-16 -1.20274e-16)
(20 -9.62021e-16 -6.7781e-17)
(20 -5.03004e-16 -5.72437e-17)
(20 -9.00376e-16 -6.96521e-17)
(20 1.28253e-16 4.30698e-16)
(20 -1.54726e-16 -6.47984e-16)
(20 5.37682e-16 -7.915e-16)
(20 -2.30282e-16 4.15545e-16)
(20 -5.77695e-16 -7.21447e-17)
(20 -2.74046e-16 -2.71821e-16)
(20 3.33968e-16 -6.14051e-17)
(20 9.69642e-17 3.80453e-16)
(20 8.77926e-16 7.40763e-16)
(20 5.97312e-16 6.84623e-16)
(20 -3.71331e-16 -2.12451e-16)
(20 -3.17534e-16 -4.60673e-16)
(20 1.97935e-16 3.2421e-16)
(20 2.54217e-16 6.59463e-16)
(20 4.24855e-16 1.27161e-16)
(20 4.18001e-16 6.57258e-17)
(20 3.19418e-17 -3.71418e-16)
(20 -4.47524e-16 -2.81528e-16)
(20 -8.37971e-16 1.02504e-16)
(20 -2.20932e-16 3.44687e-16)
(20 6.9209e-16 4.20531e-16)
(20 9.09685e-16 1.49564e-16)
(20 1.96545e-17 -3.07988e-16)
(20 -7.84635e-16 -5.1893e-16)
(20 -6.78132e-16 -1.06942e-16)
(20 5.53789e-16 3.97394e-16)
(20 -6.29281e-16 3.57763e-16)
(20 -5.93049e-16 -9.7182e-17)
(20 -1.93031e-16 1.39681e-16)
(20 9.64671e-18 -1.22995e-16)
(20 9.43991e-17 1.08801e-16)
(20 -3.62502e-16 -1.05635e-16)
(20 -3.01545e-16 -6.22766e-16)
(20 -7.43523e-17 1.77509e-16)
(20 5.3607e-16 8.96941e-17)
(20 -2.14317e-16 1.96601e-16)
(20 -7.62156e-16 1.1391e-16)
(20 -6.06789e-16 -3.11181e-16)
(20 1.42838e-15 -1.174e-16)
(20 6.94122e-16 -6.48006e-16)
(20 -4.11699e-16 -2.42674e-16)
(20 -7.88314e-16 3.72044e-16)
(20 -1.27741e-15 2.52047e-16)
(20 -1.03417e-15 1.90359e-16)
(20 -4.96532e-16 3.3309e-16)
(20 -3.08212e-16 1.06457e-16)
(20 5.46956e-16 7.01227e-16)
(20 7.53069e-16 -1.77347e-16)
(20 -4.35127e-16 2.17812e-16)
(20 3.64768e-16 -3.29805e-16)
(20 9.0249e-16 4.37068e-16)
(20 4.05571e-16 3.43152e-16)
(20 4.42188e-16 -3.88936e-16)
(20 5.62961e-16 -8.98836e-17)
(20 -8.37394e-16 -7.32508e-17)
(20 -2.77489e-16 -1.77983e-17)
(20 -4.08655e-16 7.16171e-17)
(20 -1.23674e-15 2.15004e-16)
(20 2.4275e-16 1.92303e-16)
(20 -1.22629e-16 4.14613e-16)
(20 1.18571e-15 2.11196e-16)
(20 8.47979e-16 -3.30846e-16)
(20 6.3894e-16 -9.88336e-16)
(20 -6.22469e-16 3.42585e-16)
(20 -1.0933e-15 -1.28846e-16)
(20 -8.0196e-16 -3.61691e-16)
(20 6.7366e-17 -1.30328e-16)
(20 -5.86018e-16 -1.9417e-16)
(20 6.46484e-16 -2.0607e-17)
(20 7.46416e-16 3.47133e-16)
(20 -6.03815e-16 3.16166e-17)
(20 -7.65169e-16 4.01262e-18)
(20 3.03461e-17 1.68399e-16)
(20 8.53311e-16 2.80346e-16)
(20 8.31979e-16 -2.07889e-16)
(20 7.86889e-16 -8.5548e-17)
(20 -8.10412e-18 9.95383e-17)
(20 -2.29582e-16 4.03014e-17)
(20 -9.38683e-16 4.90248e-16)
(20 2.13259e-16 3.18958e-16)
(20 9.37182e-16 -2.14245e-17)
(20 7.27331e-16 -2.90411e-16)
(20 -1.75331e-16 7.65715e-17)
(20 -9.6701e-16 1.69026e-18)
(20 -7.35427e-16 1.69151e-16)
(20 7.05485e-16 1.96751e-16)
(20 -2.85421e-16 6.80653e-16)
(20 -7.31845e-16 2.6869e-16)
(20 4.50269e-16 -2.80328e-17)
(20 3.9293e-16 1.29219e-16)
(20 5.84138e-16 9.65864e-18)
(20 2.59573e-16 -4.50779e-17)
(20 -9.39763e-16 1.49287e-17)
(20 4.11186e-16 3.55441e-16)
(20 4.06714e-16 -2.80214e-16)
(20 -9.50896e-16 -1.27994e-16)
(20 -1.36504e-15 2.98662e-16)
(20 -3.86268e-16 -1.00924e-16)
(20 1.06246e-15 -3.58745e-17)
(20 7.78423e-17 -2.73394e-16)
(20 -1.8798e-16 -9.26594e-17)
(20 -9.79653e-16 5.87982e-16)
(20 -9.40433e-16 1.22504e-16)
(20 1.06953e-16 2.55292e-16)
(20 -3.15561e-17 3.27091e-16)
(20 -2.50782e-16 2.14609e-16)
(20 9.65059e-16 1.38322e-17)
(20 8.40867e-16 -4.05644e-16)
(20 -3.43052e-17 3.57844e-16)
(20 -6.38181e-17 1.24869e-16)
(20 1.26135e-15 1.03219e-16)
(20 8.14975e-16 4.07419e-16)
(20 -1.19832e-16 -1.80618e-16)
(20 -8.81177e-17 -1.10044e-16)
(20 -1.23612e-15 3.45187e-16)
(20 -3.07309e-16 -4.28001e-16)
(20 -7.74747e-16 1.25885e-17)
(20 -4.10803e-16 2.40184e-16)
(20 1.30732e-15 1.43726e-16)
(20 7.41818e-16 -1.41639e-16)
(20 1.2948e-15 4.10872e-17)
(20 1.36173e-15 -4.11175e-16)
(20 2.34536e-16 -6.35525e-16)
(20 -1.92442e-16 1.62812e-16)
(20 -7.96113e-16 2.26054e-16)
(20 -6.52409e-16 2.74397e-16)
(20 -7.50794e-16 -1.15807e-16)
(20 -1.01607e-15 -2.84123e-16)
(20 -3.42619e-16 -4.43772e-16)
(20 6.90187e-16 -1.96038e-16)
(20 -2.85038e-17 4.60302e-16)
(20 -5.35213e-16 2.59165e-16)
(20 -1.20685e-16 5.3856e-17)
(20 8.92133e-16 2.88475e-16)
(20 7.11638e-16 3.25921e-17)
(20 9.69691e-16 -8.03414e-17)
(20 7.90642e-16 -9.09309e-17)
(20 -6.22116e-18 -2.85794e-16)
(20 -7.9166e-16 7.1029e-17)
(20 3.84221e-16 1.49866e-16)
(20 2.36508e-16 -1.05178e-16)
(20 -1.46888e-16 -6.8665e-17)
(20 -1.25486e-16 1.3385e-16)
(20 -3.65957e-16 -1.23622e-16)
(20 -4.22915e-16 -6.00678e-17)
(20 -2.84972e-16 5.03543e-17)
(20 -1.16773e-15 1.84963e-16)
(20 -5.8533e-16 3.16293e-17)
(20 3.69151e-16 7.8077e-18)
(20 9.31879e-16 -1.17547e-16)
(20 1.34723e-15 -2.79524e-16)
(20 4.60435e-16 -9.89553e-17)
(20 -6.22125e-16 3.02539e-16)
(20 2.63052e-16 2.37887e-16)
(20 2.71019e-16 -1.91367e-16)
(20 -7.99197e-16 1.28745e-17)
(20 -6.69373e-16 2.89023e-16)
(20 -2.95843e-16 4.15724e-16)
(20 6.00761e-16 -1.53174e-16)
(20 4.64301e-16 -1.26537e-16)
(20 -1.07482e-15 -8.69223e-17)
(20 -6.68471e-16 4.31804e-16)
(20 -5.73218e-16 1.45007e-16)
(20 4.55857e-17 1.75336e-16)
(20 -1.52727e-16 -2.78277e-16)
(20 4.75166e-16 4.56699e-16)
(20 -1.67604e-16 -4.58711e-16)
(20 -6.05877e-16 -4.26903e-16)
(20 -3.43674e-16 5.46434e-16)
(20 2.21037e-17 1.83257e-16)
(20 6.13661e-16 -3.3768e-16)
(20 1.00393e-15 -1.9551e-16)
(20 2.65445e-16 2.91576e-16)
(20 -7.23029e-16 4.85655e-17)
(20 -8.37663e-16 7.6926e-16)
(20 -6.54982e-16 -3.69805e-16)
(20 -2.38956e-16 1.05144e-16)
(20 2.2324e-16 -4.2583e-16)
(20 8.14681e-16 -1.29373e-16)
(20 7.12206e-16 -4.4004e-17)
(20 9.65592e-16 1.74428e-16)
(20 1.2075e-15 -1.65751e-16)
(20 5.04845e-16 -2.7242e-16)
(20 -7.32573e-17 9.36894e-17)
(20 -5.07652e-16 1.39929e-17)
(20 -9.55828e-16 -1.49151e-16)
(20 -6.9769e-16 1.88552e-16)
(20 -7.44009e-16 1.79444e-17)
(20 -8.33061e-16 -3.57294e-16)
(20 1.7873e-16 -2.57927e-16)
(20 6.45559e-16 5.78847e-16)
(20 7.75117e-16 9.15573e-17)
(20 5.37417e-16 -1.26356e-16)
(20 7.7509e-16 1.34018e-16)
(20 4.28111e-16 2.08372e-16)
(20 -2.73353e-17 -1.25355e-17)
(20 8.3171e-16 -3.88049e-16)
(20 4.36141e-16 4.80295e-17)
(20 -7.35172e-16 6.61784e-17)
(20 -5.62171e-16 2.20845e-16)
(20 -1.75248e-16 -1.12536e-16)
(20 6.36596e-17 -2.91917e-16)
(20 -4.46936e-17 8.27091e-17)
(20 -1.95065e-17 -3.27214e-17)
(20 -6.48279e-16 -2.40418e-16)
(20 -9.60782e-16 7.04282e-17)
(20 -1.30286e-15 8.79365e-16)
(20 -5.41792e-16 4.79342e-17)
(20 -3.85127e-16 -2.11601e-16)
(20 5.47282e-16 -3.35149e-16)
(20 8.76474e-16 -5.18596e-17)
(20 6.62572e-16 -5.79675e-17)
(20 9.80672e-16 5.70108e-16)
(20 1.42011e-16 4.22122e-16)
(20 -5.39035e-16 -4.19743e-16)
(20 -4.923e-16 -6.99198e-16)
(20 -3.49135e-16 -3.64971e-16)
(20 -6.96283e-16 2.44804e-16)
(20 -3.26226e-16 -4.16666e-16)
(20 9.92339e-16 -3.83801e-16)
(20 -3.51724e-16 4.21554e-16)
(20 -9.30124e-16 5.666e-17)
(20 -5.20761e-16 -1.28516e-16)
(20 6.37574e-16 -4.11544e-16)
(20 -4.70486e-16 3.82984e-16)
(20 6.67509e-16 6.89974e-16)
(20 -6.48553e-18 4.0194e-17)
(20 -1.37183e-15 -1.36473e-16)
(20 -8.99736e-16 3.5072e-16)
(20 2.71002e-16 -6.05992e-17)
(20 1.15168e-15 -8.01649e-17)
(20 6.12682e-16 -3.30765e-16)
(20 6.69548e-16 1.15421e-16)
(20 -1.00942e-15 2.55951e-16)
(20 -3.95021e-16 5.54234e-16)
(20 -9.00078e-16 -5.60238e-17)
(20 3.00307e-16 -3.23203e-16)
(20 6.81198e-17 -3.88044e-16)
(20 5.08205e-16 -5.5934e-17)
(20 1.29974e-15 -7.62689e-17)
(20 9.77783e-16 -1.77023e-16)
(20 6.64033e-16 -2.28132e-17)
(20 -7.54911e-16 -5.10908e-16)
(20 -2.45797e-16 1.65283e-16)
(20 2.95103e-16 9.98252e-17)
(20 -5.5374e-16 2.01823e-16)
(20 5.56236e-17 3.22756e-16)
(20 -4.45772e-16 2.02466e-16)
(20 -9.19872e-16 -3.0846e-16)
(20 -2.48694e-16 -1.0499e-16)
(20 7.30919e-16 1.68961e-16)
(20 1.39051e-15 -1.45937e-16)
(20 6.17169e-16 -8.28805e-18)
(20 3.26023e-16 1.35718e-16)
(20 1.88517e-16 1.32151e-16)
(20 -6.37949e-16 1.12411e-16)
(20 -7.1182e-17 -1.59006e-16)
(20 9.65054e-16 -2.30652e-16)
(20 3.40587e-16 4.99245e-17)
(20 -5.96242e-16 2.22635e-16)
(20 -2.69426e-17 -2.38251e-16)
(20 -1.32084e-16 -1.44625e-16)
(20 -5.84251e-16 9.21663e-17)
(20 -3.2103e-16 -3.08153e-16)
(20 -2.33915e-16 -4.45854e-17)
(20 -2.56926e-17 2.89571e-16)
(20 -4.73039e-17 2.64193e-16)
(20 2.21481e-16 -2.24017e-16)
(20 -5.41275e-16 -1.5438e-17)
(20 2.62725e-17 -1.85454e-16)
(20 4.53729e-16 4.26097e-16)
(20 -4.94019e-16 -9.47637e-17)
(20 1.10523e-15 -3.53926e-16)
(20 9.59041e-16 -1.92385e-16)
(20 -4.3504e-16 -2.26078e-17)
(20 -5.41988e-16 2.09854e-16)
(20 -4.3564e-16 1.02259e-16)
(20 -5.86186e-16 3.66795e-16)
(20 -5.48086e-16 6.05215e-17)
(20 5.78833e-16 -1.6116e-17)
(20 -5.47977e-16 1.52527e-16)
(20 3.81697e-16 6.55766e-16)
(20 -1.71738e-16 -1.58864e-16)
(20 -1.56068e-16 -1.6551e-16)
(20 -7.77285e-16 3.80572e-16)
(20 8.31972e-16 5.014e-16)
(20 -1.66337e-15 -1.62161e-16)
(20 1.59581e-16 8.24336e-16)
(20 5.73883e-16 2.0192e-16)
(20 -3.36804e-16 -6.18051e-16)
(20 2.06418e-16 -8.42162e-16)
(20 -6.42792e-17 -2.20185e-16)
(20 9.95487e-17 1.70293e-17)
(20 1.44867e-16 6.50629e-16)
(20 9.31266e-17 8.47263e-16)
(20 -4.44625e-16 1.79276e-16)
(20 -7.53722e-16 -2.1166e-16)
(20 5.60822e-16 -1.09272e-16)
(20 9.63753e-16 -3.11584e-16)
(20 1.40959e-15 -2.91596e-16)
(20 8.30229e-16 2.18491e-17)
(20 -2.00608e-16 3.56378e-18)
(20 -9.73403e-16 7.62929e-17)
(20 3.68359e-16 5.67277e-16)
(20 1.91123e-16 -6.50867e-16)
(20 -4.58946e-16 -3.01229e-16)
(20 -3.53813e-16 4.43993e-16)
(20 -3.17213e-16 5.60709e-16)
(20 -6.5955e-16 -1.64344e-16)
(20 -1.53394e-16 -3.30914e-16)
(20 3.73268e-16 2.15697e-17)
(20 8.66858e-16 -2.47055e-16)
(20 5.153e-16 2.08738e-16)
(20 -6.43914e-17 1.50651e-16)
(20 1.01381e-15 2.9474e-16)
(20 1.63711e-17 3.2723e-16)
(20 -3.96009e-16 4.50429e-17)
(20 5.18091e-16 -4.43414e-16)
(20 1.55063e-16 -1.03077e-16)
(20 -7.72354e-16 2.96012e-17)
(20 -4.86939e-16 -4.65253e-16)
(20 -6.96055e-16 -2.58264e-16)
(20 -1.17519e-15 1.1558e-16)
(20 -5.40797e-16 7.62744e-18)
(20 5.05489e-16 -4.07919e-17)
(20 3.54075e-16 -3.40255e-16)
(20 9.74183e-16 9.3824e-17)
(20 2.34132e-16 -1.6304e-16)
(20 -6.46992e-16 6.25806e-17)
(20 -1.3255e-16 2.09985e-17)
(20 9.32159e-16 2.17978e-16)
(20 4.34909e-16 6.25003e-16)
(20 -2.75265e-16 -6.12203e-16)
(20 4.41126e-17 -1.0729e-15)
(20 -7.94327e-16 -2.9355e-16)
(20 -4.37787e-16 6.61156e-17)
(20 5.81966e-17 3.13389e-16)
(20 -7.33929e-18 2.15706e-16)
(20 -6.83445e-16 -3.20743e-16)
(20 1.19815e-16 4.02705e-16)
(20 1.24199e-15 -2.6199e-17)
(20 1.53041e-16 -5.87756e-17)
(20 7.10461e-16 3.9268e-16)
(20 -6.77179e-16 -1.63329e-16)
(20 7.37229e-16 3.00003e-16)
(20 -6.28039e-16 -1.78757e-16)
(20 9.61028e-16 2.54754e-16)
(20 6.33623e-16 4.6647e-16)
(20 9.72375e-16 -4.20205e-16)
(20 -8.6377e-16 -2.21359e-16)
(20 -1.14818e-15 -4.5501e-16)
(20 -5.8213e-16 -2.7346e-17)
(20 1.11626e-16 4.7593e-16)
(20 2.09215e-15 5.64578e-16)
(20 6.12294e-16 4.62313e-16)
(20 -1.37693e-16 -2.00974e-16)
(20 -4.567e-16 1.08719e-16)
(20 8.07146e-16 -1.76641e-16)
(20 8.95525e-16 -2.187e-16)
(20 5.67448e-16 -1.04342e-16)
(20 5.2408e-16 -2.6867e-16)
(20 -2.80396e-16 -8.18106e-17)
(20 -1.75722e-16 1.33798e-17)
(20 2.05755e-16 3.02693e-16)
(20 -8.56223e-16 -1.6649e-16)
(20 -7.88012e-16 -2.08339e-16)
(20 -1.47928e-16 7.60495e-16)
(20 -1.31802e-16 6.51964e-16)
(20 -8.79795e-17 -4.69353e-16)
(20 -2.87091e-16 -4.88638e-16)
(20 -7.67375e-17 -3.29907e-17)
(20 5.61941e-16 1.04599e-16)
(20 3.72742e-16 2.50319e-16)
(20 2.38744e-16 5.69728e-17)
(20 1.47212e-15 -2.29876e-16)
(20 8.84702e-16 3.12715e-16)
(20 1.11365e-16 1.06999e-16)
(20 4.70718e-17 -1.437e-16)
(20 -4.1571e-16 1.29311e-16)
(20 -1.33266e-15 7.56652e-17)
(20 -1.28941e-15 -2.7202e-16)
(20 -9.43796e-16 -6.28613e-17)
(20 -6.3212e-16 1.38601e-16)
(20 -4.13873e-16 -8.17835e-17)
(20 -1.0382e-16 -3.9297e-16)
(20 -2.85404e-16 -3.76328e-16)
(20 1.11365e-15 -1.72064e-16)
(20 -2.82971e-16 2.41503e-16)
(20 -1.12999e-15 1.78665e-16)
(20 -5.29939e-16 6.73108e-17)
(20 4.66608e-16 5.63245e-17)
(20 2.05131e-15 -2.77481e-16)
(20 9.89347e-16 -1.79037e-16)
(20 -7.26259e-16 -4.02022e-16)
(20 -1.37202e-15 -1.30367e-16)
(20 -6.32693e-16 8.49099e-17)
(20 1.13581e-15 7.45267e-16)
(20 -1.00194e-16 2.56739e-16)
(20 3.87618e-16 -3.62415e-16)
(20 3.20845e-16 3.24405e-16)
(20 5.19359e-16 -9.5834e-17)
(20 3.0291e-16 3.27306e-16)
(20 -2.75522e-16 2.315e-16)
(20 -1.52584e-16 -2.37208e-16)
(20 -4.59563e-16 -2.6498e-16)
(20 -4.91904e-16 -2.27574e-16)
(20 1.00264e-15 1.25875e-16)
(20 1.59766e-16 -1.3822e-16)
(20 -4.61113e-17 -5.84746e-16)
(20 -4.76159e-16 9.68481e-18)
(20 -2.73746e-16 -3.75283e-16)
(20 1.96618e-16 2.4134e-16)
(20 3.982e-16 1.59879e-16)
(20 1.95943e-15 -7.32023e-17)
(20 9.57943e-16 5.12945e-16)
(20 1.49853e-16 1.04001e-16)
(20 4.05854e-16 9.40536e-17)
(20 1.40844e-15 5.21627e-17)
(20 1.1473e-15 6.67652e-17)
(20 -1.13942e-16 6.18539e-17)
(20 -1.05535e-16 -6.56942e-16)
(20 3.90115e-17 3.25835e-17)
(20 -6.72001e-16 1.46365e-16)
(20 -4.25555e-16 -1.49838e-17)
(20 -4.93191e-16 1.20759e-16)
(20 3.49297e-16 -2.70065e-16)
(20 4.07405e-16 2.14844e-16)
(20 -2.09265e-17 4.7636e-16)
(20 -7.75168e-17 -6.31838e-16)
(20 -3.16825e-16 -3.00157e-16)
(20 7.99094e-17 4.41077e-16)
(20 2.37066e-16 3.91468e-17)
(20 -5.76506e-16 1.23302e-16)
(20 -1.9164e-16 1.14833e-16)
(20 5.80348e-16 -1.60955e-16)
(20 7.86744e-16 5.14434e-19)
(20 4.63154e-16 -1.62245e-16)
(20 1.62735e-16 -1.39212e-16)
(20 8.8388e-17 3.5233e-16)
(20 -8.6703e-16 1.18151e-16)
(20 -7.54483e-16 -1.22195e-16)
(20 -4.40918e-16 -5.68492e-18)
(20 -3.81987e-16 3.06965e-17)
(20 -7.34092e-16 7.40743e-17)
(20 -7.8631e-16 -2.98656e-16)
(20 -3.33345e-16 -3.46659e-16)
(20 -3.76549e-16 1.72766e-16)
(20 -4.62441e-16 1.97821e-16)
(20 -4.3274e-16 2.16735e-16)
(20 1.69044e-16 7.51248e-17)
(20 9.0233e-16 4.6128e-16)
(20 8.04732e-16 -4.34785e-16)
(20 8.71352e-16 -2.83322e-16)
(20 -3.16483e-16 -3.96428e-16)
(20 -7.12468e-16 -4.05697e-16)
(20 -3.40741e-16 5.50162e-17)
(20 1.09469e-15 3.84374e-16)
(20 5.40707e-16 4.21337e-16)
(20 -1.79896e-15 -6.88769e-17)
(20 -8.43831e-16 -1.02418e-16)
(20 -3.64516e-16 -2.00549e-17)
(20 -2.39953e-16 -2.19049e-16)
(20 -3.37566e-16 3.35285e-16)
(20 9.30829e-16 9.99023e-18)
(20 -2.50685e-16 -2.39957e-16)
(20 4.37393e-16 9.06314e-18)
(20 3.07812e-18 2.61024e-16)
(20 1.91184e-16 -8.55469e-17)
(20 -1.54321e-16 -1.68706e-16)
(20 3.47553e-16 1.6853e-16)
(20 7.94085e-17 -1.50454e-16)
(20 5.83657e-16 6.8408e-16)
(20 -1.0361e-15 3.24408e-16)
(20 4.38109e-16 -4.05155e-16)
(20 1.50305e-15 1.63768e-16)
(20 1.1446e-15 2.5378e-17)
(20 8.05812e-16 2.67794e-16)
(20 8.92235e-16 -3.23735e-16)
(20 1.25861e-15 7.5986e-17)
(20 9.50239e-16 1.76131e-16)
(20 -7.15837e-16 -3.91842e-16)
(20 -4.87266e-16 -1.13835e-16)
(20 -9.98474e-16 1.534e-16)
(20 -3.80769e-16 2.57701e-16)
(20 -6.44661e-16 -4.2429e-16)
(20 4.57225e-16 -4.14142e-16)
(20 5.67526e-16 4.79828e-17)
(20 2.98292e-16 4.0428e-16)
(20 -7.38725e-16 -3.38856e-16)
(20 -5.48302e-16 -1.74729e-16)
(20 7.82752e-16 1.88524e-16)
(20 1.50558e-17 -8.7383e-18)
(20 -6.28711e-16 -4.91071e-17)
(20 2.35565e-16 1.14728e-16)
(20 4.659e-17 -2.13692e-16)
(20 -4.84832e-17 8.33215e-17)
(20 -1.78058e-16 1.22602e-16)
(20 -5.67181e-16 1.94687e-16)
(20 -8.13612e-17 3.12164e-16)
(20 3.61141e-16 -1.42258e-17)
(20 3.64011e-16 -2.45458e-16)
(20 -4.46071e-16 -3.10463e-16)
(20 -5.21404e-16 -2.0111e-16)
(20 -5.59747e-16 1.06543e-17)
(20 -7.21439e-16 7.67032e-17)
(20 2.2889e-16 2.7373e-16)
(20 -2.72022e-16 1.91282e-16)
(20 -1.53269e-16 2.35241e-16)
(20 4.55874e-16 2.36389e-16)
(20 3.57381e-16 -4.99432e-16)
(20 1.77887e-15 6.81465e-17)
(20 -1.62499e-17 1.70196e-16)
(20 -5.17428e-16 -4.38424e-16)
(20 -7.03911e-16 -4.85034e-16)
(20 -7.93286e-16 -1.42984e-16)
(20 -3.5201e-16 5.9325e-16)
(20 -3.55825e-16 -2.54284e-16)
(20 1.17752e-15 -1.09068e-16)
(20 -5.02953e-16 5.84448e-16)
(20 -1.93551e-15 4.03499e-16)
(20 1.06771e-16 -3.01533e-16)
(20 5.0483e-16 6.64012e-17)
(20 2.68508e-16 2.73382e-17)
(20 1.80392e-16 -2.19076e-16)
(20 -1.13621e-16 2.1665e-17)
(20 1.08461e-17 -4.80352e-17)
(20 4.08536e-16 2.67568e-17)
(20 2.54644e-16 -6.87754e-16)
(20 9.61493e-17 -1.33226e-16)
(20 3.03474e-16 5.03585e-17)
(20 -2.24426e-17 1.92503e-16)
(20 6.71809e-16 5.95293e-16)
(20 -3.36058e-16 3.82418e-16)
(20 -6.18706e-16 -1.43078e-16)
(20 9.20442e-16 -2.91272e-17)
(20 1.51055e-15 -2.35265e-16)
(20 1.14642e-15 3.31001e-16)
(20 -3.146e-16 3.51817e-16)
(20 5.63475e-16 -6.75728e-16)
(20 1.1472e-15 -4.52635e-16)
(20 -3.10787e-16 3.11637e-16)
(20 -1.59389e-15 2.71886e-16)
(20 -1.2344e-15 3.75548e-16)
(20 -1.84765e-16 -6.36846e-17)
(20 9.2847e-17 -1.35279e-17)
(20 4.05668e-16 3.58732e-17)
(20 7.72916e-16 4.44221e-17)
(20 7.35086e-16 4.38706e-16)
(20 -4.43478e-16 -4.36954e-16)
(20 1.16904e-16 2.41396e-16)
(20 6.27396e-16 -2.42398e-16)
(20 -1.59822e-16 -1.12503e-16)
(20 7.25537e-16 1.9849e-16)
(20 1.40175e-15 8.08357e-17)
(20 -2.47013e-16 -3.20147e-16)
(20 -8.43765e-16 -5.49117e-17)
(20 -5.75781e-16 2.50341e-16)
(20 -5.26493e-16 5.24092e-16)
(20 3.50993e-16 4.20948e-16)
(20 1.15976e-15 -2.93168e-16)
(20 5.86234e-16 -5.89589e-16)
(20 -1.27767e-15 -1.09086e-16)
(20 -8.1857e-16 1.55635e-16)
(20 -6.33816e-16 1.59126e-16)
(20 -9.33133e-16 -2.00192e-16)
(20 1.69481e-16 3.36889e-18)
(20 -5.89791e-17 5.1158e-16)
(20 1.35424e-16 4.56724e-16)
(20 6.31663e-16 -9.80824e-17)
(20 1.17345e-16 -3.61029e-16)
(20 1.47279e-15 -6.17154e-16)
(20 -1.78793e-16 1.16475e-16)
(20 -6.44031e-16 -1.28333e-16)
(20 -9.91683e-16 -1.80694e-16)
(20 -7.31529e-16 -7.87136e-17)
(20 1.67406e-17 2.55319e-16)
(20 -5.48175e-16 -1.46743e-16)
(20 1.04024e-15 6.86337e-17)
(20 5.35402e-16 3.58808e-17)
(20 -2.67906e-16 -1.52701e-16)
(20 6.16901e-16 -2.66341e-16)
(20 -1.72173e-15 2.77548e-16)
(20 -8.19339e-17 9.26046e-17)
(20 6.69517e-16 -5.09007e-17)
(20 4.235e-16 -3.2601e-17)
(20 1.35984e-16 -2.29091e-16)
(20 -1.07954e-15 -2.85034e-16)
(20 -1.07043e-15 -4.78621e-16)
(20 7.36134e-16 1.4478e-16)
(20 -2.83335e-16 4.24383e-17)
(20 8.89305e-17 2.28781e-16)
(20 9.18095e-17 2.38921e-16)
(20 5.17708e-16 -4.60241e-17)
(20 -3.29011e-17 4.55447e-17)
(20 1.04035e-15 3.62254e-16)
(20 7.65881e-16 -2.21604e-16)
(20 7.16872e-16 -4.91659e-18)
(20 1.16185e-16 1.16532e-16)
(20 -1.9667e-16 -4.64681e-16)
(20 -5.60866e-16 -3.54857e-16)
(20 -1.37417e-16 2.13052e-16)
(20 -7.69968e-16 2.56542e-16)
(20 8.24892e-16 7.22852e-16)
(20 1.80604e-16 -4.39672e-16)
(20 -2.05484e-16 -2.46237e-16)
(20 -5.62965e-16 -1.27931e-16)
(20 3.4148e-16 -3.72564e-16)
(20 1.27724e-15 1.14977e-16)
(20 1.02518e-15 -7.65452e-17)
(20 8.07346e-16 -1.81419e-16)
(20 -1.08959e-16 -2.57991e-16)
(20 -6.2552e-16 1.40493e-16)
(20 1.27826e-15 -8.77961e-17)
(20 1.374e-15 -1.42945e-16)
(20 -1.16316e-16 -2.60434e-16)
(20 -4.83078e-16 4.41514e-16)
(20 -3.6734e-16 4.79789e-16)
(20 1.07266e-15 2.98001e-16)
(20 1.02099e-15 7.17561e-17)
(20 1.68779e-16 -8.58474e-16)
(20 -7.75901e-16 -6.34313e-16)
(20 -1.31224e-15 3.06098e-16)
(20 -1.20208e-16 5.71991e-16)
(20 -2.02329e-16 3.33812e-16)
(20 -1.28171e-15 -6.00239e-17)
(20 -1.04426e-15 -4.57575e-17)
(20 -6.42544e-17 9.6997e-16)
(20 -8.78117e-17 3.09296e-16)
(20 3.4248e-16 1.41107e-17)
(20 9.29173e-17 -1.55963e-16)
(20 5.034e-16 -4.99421e-16)
(20 2.1981e-17 6.00332e-17)
(20 -5.3495e-16 3.13393e-16)
(20 -4.3043e-16 5.66093e-17)
(20 -6.76615e-16 -3.03584e-16)
(20 1.14327e-17 -1.06475e-16)
(20 4.73305e-16 -1.33641e-16)
(20 1.05168e-15 -1.19203e-16)
(20 -2.09087e-16 1.997e-16)
(20 -1.61905e-16 -4.17729e-16)
(20 1.06797e-16 3.47227e-16)
(20 -4.39511e-16 -2.20111e-18)
(20 8.31579e-16 2.56463e-16)
(20 7.95555e-16 -2.82238e-16)
(20 3.68657e-16 1.54733e-16)
(20 -4.92986e-16 -3.67274e-16)
(20 8.08634e-17 -3.93016e-16)
(20 -1.26906e-16 1.45484e-16)
(20 8.82732e-16 -2.73376e-16)
(20 2.37931e-16 1.42376e-16)
(20 6.49094e-16 3.14677e-16)
(20 -2.05568e-16 5.04609e-16)
(20 5.28805e-16 -6.0923e-17)
(20 3.8161e-16 -5.75298e-16)
(20 6.74261e-16 -1.82432e-16)
(20 -6.1947e-16 -1.85938e-16)
(20 -4.41756e-16 -1.48185e-16)
(20 3.11529e-16 2.42302e-16)
(20 5.28374e-17 9.30386e-17)
(20 -4.03835e-16 -1.82125e-16)
(20 -3.89638e-17 8.26922e-17)
(20 1.86406e-16 -1.17098e-16)
(20 1.6383e-15 -1.18725e-16)
(20 -1.87369e-16 1.48353e-16)
(20 -7.47663e-16 4.14692e-16)
(20 -1.13281e-15 2.01038e-16)
(20 -6.65048e-16 -6.29951e-16)
(20 6.18299e-16 -3.25645e-16)
(20 1.1408e-15 -8.38821e-17)
(20 2.99827e-16 -5.22942e-16)
(20 3.55458e-16 -9.29006e-17)
(20 3.62312e-16 6.16603e-16)
(20 8.95995e-16 2.58671e-16)
(20 -2.06931e-16 -3.53339e-16)
(20 -3.89371e-16 -2.23724e-16)
(20 7.77429e-16 6.0763e-16)
(20 5.90581e-16 4.66985e-16)
(20 1.04396e-15 -4.18817e-16)
(20 -1.38021e-16 -6.85656e-16)
(20 -1.49576e-15 -4.00775e-16)
(20 -1.0278e-15 -4.5713e-16)
(20 -4.33469e-16 2.97841e-16)
(20 6.73597e-16 1.97314e-16)
(20 4.41991e-16 1.89806e-16)
(20 -5.2863e-16 5.33149e-16)
(20 -1.38022e-15 5.92224e-16)
(20 8.47718e-16 4.25316e-16)
(20 -3.53352e-16 3.81744e-16)
(20 1.01226e-16 -1.80391e-16)
(20 -8.98711e-17 -2.31182e-16)
(20 -7.96824e-16 -4.49507e-16)
(20 -2.24633e-16 -4.85212e-17)
(20 -1.56494e-16 2.76291e-16)
(20 5.77628e-16 1.70691e-16)
(20 -3.01751e-16 -1.94453e-16)
(20 -1.92938e-16 -5.9098e-17)
(20 5.01117e-16 -3.73755e-16)
(20 -1.00819e-16 -5.48983e-16)
(20 -8.94583e-17 1.18823e-16)
(20 5.03386e-16 -5.33687e-16)
(20 1.08764e-15 2.662e-16)
(20 3.94836e-16 -5.19932e-16)
(20 -9.0483e-16 -9.36999e-17)
(20 -4.62257e-16 5.07175e-16)
(20 -4.29906e-16 6.83008e-17)
(20 2.83536e-16 4.74649e-16)
(20 2.8925e-16 -3.40961e-16)
(20 -1.06539e-16 1.51317e-16)
(20 1.50753e-18 1.27186e-16)
(20 2.7422e-16 -2.02915e-16)
(20 -1.08311e-16 2.37232e-17)
(20 -6.12771e-16 3.36769e-16)
(20 4.1245e-16 -2.26969e-16)
(20 3.29705e-16 -3.20499e-16)
(20 1.5759e-16 -5.35618e-16)
(20 -6.05122e-16 8.17409e-18)
(20 -3.88925e-16 3.16267e-16)
(20 2.98553e-16 -1.77285e-17)
(20 -4.76809e-17 -1.06045e-16)
(20 -6.32763e-16 -3.12549e-16)
(20 1.16844e-16 1.70934e-16)
(20 1.21615e-15 5.11713e-16)
(20 5.37371e-16 -1.96724e-16)
(20 -6.78257e-16 2.58543e-16)
(20 -2.50657e-16 4.83961e-16)
(20 -4.87243e-16 3.1625e-16)
(20 -8.01712e-16 -2.40795e-16)
(20 -1.12162e-15 -3.14283e-16)
(20 9.59254e-17 -5.31836e-17)
(20 2.90175e-16 -1.50971e-16)
(20 5.86384e-16 -9.09076e-17)
(20 5.69808e-16 -4.6768e-17)
(20 7.73905e-16 -1.19452e-16)
(20 -4.66626e-16 1.63588e-16)
(20 -1.89287e-16 2.20114e-16)
(20 8.57838e-16 -9.24999e-17)
(20 9.05558e-16 -2.59671e-16)
(20 -1.99628e-17 -3.93806e-16)
(20 -8.66373e-16 -2.45625e-16)
(20 -1.03545e-15 4.29613e-16)
(20 -5.42898e-16 -9.54455e-17)
(20 -8.21332e-17 1.96005e-16)
(20 3.69419e-17 -1.48368e-16)
(20 -5.3612e-17 -3.109e-16)
(20 -8.42209e-17 3.30258e-16)
(20 -5.38385e-16 6.29025e-16)
(20 1.04638e-15 4.43075e-16)
(20 4.88787e-16 2.9398e-16)
(20 4.96411e-16 -1.87622e-16)
(20 3.93402e-16 1.28244e-16)
(20 -1.33909e-15 1.84499e-16)
(20 -9.25827e-16 1.40883e-16)
(20 4.85155e-16 -4.61703e-16)
(20 6.70433e-16 5.94645e-17)
(20 -3.88285e-17 -2.25846e-16)
(20 -5.65203e-16 -3.70511e-16)
(20 -2.77177e-16 -2.79626e-16)
(20 3.38173e-16 -2.40873e-16)
(20 -4.27209e-16 -1.52402e-18)
(20 -2.20013e-16 -5.30362e-16)
(20 3.38704e-16 2.65747e-16)
(20 -1.39878e-18 1.4027e-16)
(20 3.55202e-16 6.22632e-16)
(20 -6.81051e-16 1.72393e-16)
(20 1.05328e-15 7.10747e-17)
(20 8.98243e-16 -3.89025e-16)
(20 -1.00259e-15 2.50605e-16)
(20 -1.0478e-16 2.67098e-16)
(20 -9.40875e-17 -1.76784e-16)
(20 4.96647e-16 -1.31697e-17)
(20 7.49205e-17 3.22097e-16)
(20 -7.63079e-16 5.30395e-16)
(20 -1.01339e-15 2.09465e-16)
(20 4.20355e-16 -3.34474e-16)
(20 1.89432e-16 -4.66632e-16)
(20 6.35133e-17 -1.34289e-16)
(20 -6.91124e-16 -3.60661e-17)
(20 -1.68388e-16 -2.68209e-16)
(20 -1.45464e-16 1.28511e-16)
(20 -8.35275e-16 3.15927e-16)
(20 -3.44475e-17 1.32677e-16)
(20 1.7665e-15 2.28388e-16)
(20 4.30955e-16 2.48345e-16)
(20 -2.52118e-16 3.65545e-16)
(20 -1.02296e-15 2.18878e-16)
(20 -6.57504e-16 3.94101e-17)
(20 -4.87498e-16 -4.83903e-16)
(20 -3.30133e-16 5.54156e-16)
(20 1.09296e-15 3.89908e-16)
(20 1.0058e-15 -1.13203e-16)
(20 2.98414e-16 2.05887e-17)
(20 -2.67019e-16 2.54491e-16)
(20 4.88225e-17 -8.74538e-17)
(20 2.88202e-16 1.28325e-16)
(20 7.94199e-16 -3.92075e-17)
(20 5.15004e-16 -3.01925e-16)
(20 3.89017e-16 -1.88468e-16)
(20 -5.06875e-16 -1.4406e-16)
(20 -6.32402e-16 6.88355e-17)
(20 -4.533e-16 -5.04859e-18)
(20 -6.17972e-16 -2.5546e-16)
(20 8.98311e-17 5.35917e-17)
(20 -6.65776e-17 -5.38356e-17)
(20 -4.1469e-16 4.45823e-17)
(20 2.42522e-17 3.28979e-16)
(20 1.40801e-16 1.96049e-16)
(20 1.03053e-15 4.05789e-16)
(20 1.79259e-15 3.88296e-16)
(20 7.76605e-16 -3.61604e-16)
(20 6.98115e-16 1.23143e-16)
(20 -9.75615e-16 4.28011e-16)
(20 -1.98761e-16 6.11433e-16)
(20 7.24101e-16 -5.36688e-16)
(20 5.92995e-16 -2.26975e-16)
(20 -2.57689e-16 -1.79192e-17)
(20 -7.84789e-16 -3.31521e-16)
(20 -1.1709e-15 -1.39374e-16)
(20 4.0098e-16 -1.03503e-15)
(20 -1.12784e-15 -1.34031e-16)
(20 1.0397e-15 1.50964e-16)
(20 6.08934e-17 2.51608e-16)
(20 -1.93746e-16 7.07394e-16)
(20 1.18359e-16 8.39385e-16)
(20 4.19561e-16 -3.89805e-16)
(20 -1.95584e-17 -5.39089e-16)
(20 2.22801e-16 -2.47095e-16)
(20 -8.55026e-16 -3.42354e-16)
(20 5.53793e-16 -3.33821e-18)
(20 -2.85694e-16 6.90826e-17)
(20 2.18462e-16 -1.14345e-16)
(20 4.53088e-16 1.48228e-16)
(20 -2.13319e-16 2.27675e-16)
(20 -9.92697e-16 6.16022e-16)
(20 -2.35803e-16 -3.15873e-16)
(20 1.71224e-16 1.35089e-16)
(20 4.81502e-16 2.32378e-17)
(20 -7.44337e-16 8.19098e-17)
(20 -4.86142e-17 -2.74877e-16)
(20 5.77607e-16 1.92999e-16)
(20 -6.39368e-16 1.5636e-16)
(20 -7.66173e-17 -5.78663e-17)
(20 1.18036e-15 -1.17139e-16)
(20 8.76026e-16 -1.21357e-16)
(20 1.49542e-16 2.58042e-16)
(20 -6.38889e-16 5.59376e-16)
(20 -5.96787e-16 2.48608e-16)
(20 -6.56894e-16 2.04279e-16)
(20 4.78907e-16 1.60995e-16)
(20 8.89531e-16 -2.12809e-16)
(20 6.70942e-16 -3.30674e-16)
(20 5.76134e-16 -3.80541e-17)
(20 9.38786e-16 2.95879e-16)
(20 1.90428e-16 1.70515e-16)
(20 1.93107e-16 1.00066e-16)
(20 1.74467e-16 -2.93737e-16)
(20 -3.4187e-17 -2.36222e-16)
(20 -3.2319e-16 -2.53459e-16)
(20 -4.9783e-16 1.32201e-16)
(20 2.07071e-16 4.79104e-16)
(20 3.49993e-16 1.09945e-16)
(20 -6.33757e-16 -4.60186e-16)
(20 -2.56076e-16 -2.82031e-16)
(20 -2.65492e-16 1.08684e-17)
(20 -5.8911e-16 1.73324e-16)
(20 -1.79784e-16 2.19997e-16)
(20 2.73275e-16 1.0685e-16)
(20 6.48127e-16 3.72391e-16)
(20 1.48572e-15 1.35758e-16)
(20 -2.31179e-16 -4.10533e-16)
(20 3.86726e-16 2.92023e-16)
(20 -6.90567e-17 5.91566e-16)
(20 -4.88909e-17 -2.23301e-17)
(20 2.17367e-17 -2.87162e-16)
(20 1.28966e-16 -6.5584e-16)
(20 2.34891e-16 -8.37563e-17)
(20 -9.23523e-16 -5.7472e-16)
(20 -8.04681e-16 -2.67848e-16)
(20 -3.056e-16 -3.6035e-16)
(20 -4.27476e-16 2.97421e-16)
(20 1.02202e-15 -3.19402e-17)
(20 2.80515e-16 1.3235e-17)
(20 2.03442e-16 3.15712e-16)
(20 -6.51859e-16 5.68871e-16)
(20 -8.95336e-16 -2.76149e-16)
(20 4.23234e-16 -3.36996e-16)
(20 2.80269e-16 -2.8723e-16)
(20 5.04279e-16 7.56459e-17)
(20 8.68918e-16 -2.2809e-16)
(20 -4.94167e-16 1.17145e-16)
(20 -1.06996e-15 6.56222e-17)
(20 -1.01525e-16 3.93699e-16)
(20 -2.36742e-16 1.54863e-16)
(20 4.76131e-17 4.3897e-16)
(20 -2.78903e-16 -4.86535e-16)
(20 -1.46795e-16 -3.59726e-16)
(20 8.61439e-17 -2.24528e-16)
(20 -5.63739e-16 1.00623e-16)
(20 9.39714e-16 2.807e-16)
(20 7.69586e-16 -2.31035e-16)
(20 -5.96257e-16 5.30379e-16)
(20 -2.97031e-18 1.80341e-17)
(20 6.98884e-16 -4.70701e-16)
(20 1.18569e-16 -1.69792e-16)
(20 -1.02206e-16 4.77376e-16)
(20 4.81848e-16 4.48323e-16)
(20 1.9546e-16 1.34012e-16)
(20 -5.37772e-16 2.25842e-17)
(20 -3.4786e-16 2.7301e-17)
(20 -5.90586e-16 9.76263e-17)
(20 -2.04019e-16 -1.61229e-16)
(20 5.64458e-16 3.10824e-18)
(20 1.15105e-15 -1.58755e-16)
(20 3.03907e-16 -1.27054e-16)
(20 2.22585e-16 2.03375e-18)
(20 1.79849e-16 3.07907e-17)
(20 -3.10476e-16 9.96728e-17)
(20 -5.59805e-16 2.14945e-16)
(20 -2.99572e-16 -2.38392e-18)
(20 1.04468e-15 -1.19688e-16)
(20 1.67641e-15 -2.55205e-16)
(20 -2.3915e-16 -1.56906e-16)
(20 -1.04264e-15 8.50029e-17)
(20 -1.20746e-15 -7.19554e-17)
(20 -7.03228e-16 -3.65452e-17)
(20 -5.93815e-16 3.17521e-16)
(20 -3.07898e-16 2.69258e-16)
(20 -3.76174e-16 1.95563e-16)
(20 1.9733e-16 1.91141e-16)
(20 -1.56644e-16 2.16579e-16)
(20 5.24162e-16 3.62052e-16)
(20 9.82957e-16 3.5543e-16)
(20 -8.64104e-16 2.43938e-16)
(20 -7.51183e-16 -1.28594e-16)
(20 -3.96152e-16 -5.88945e-16)
(20 4.28911e-16 -4.27758e-16)
(20 1.22842e-16 -2.27331e-16)
(20 3.30277e-16 -2.09084e-16)
(20 -5.00991e-16 -5.57813e-16)
(20 1.07076e-15 6.03907e-16)
(20 -3.37228e-16 -1.54766e-16)
(20 5.19573e-16 -7.74621e-17)
(20 5.72285e-16 4.30291e-17)
(20 -5.95701e-16 3.52961e-16)
(20 1.05174e-16 8.22838e-16)
(20 -2.98129e-17 -5.19729e-16)
(20 -2.52425e-17 -2.53683e-16)
(20 6.6457e-16 3.91814e-18)
(20 -4.46619e-18 -2.72029e-17)
(20 -2.99251e-16 5.84267e-17)
(20 -9.76433e-16 1.92871e-16)
(20 3.59372e-17 2.98231e-16)