/*--------------------------------*- C++ -*----------------------------------*\
  =========                 |
  \\      /  F ield         | OpenFOAM: The Open Source CFD Toolbox
   \\    /   O peration     | Website:  https://openfoam.org
    \\  /    A nd           | Version:  13
     \\/     M anipulation  |
\*---------------------------------------------------------------------------*/
FoamFile
{
    format      ascii;
    class       volScalarField;
    location    "2";
    object      nut;
}
// * * * * * * * * * * * * * * * * * * * * * * * * * * * * * * * * * * * * * //

dimensions      [0 2 -1 0 0 0 0];

internalField   nonuniform List<scalar> 
54636
(
0.0279002
0.0227947
0.0217228
0.021503
0.021458
0.0214477
0.0214438
0.0214402
0.0214366
0.0214316
0.0214246
0.0214144
0.0213999
0.0213808
0.0213582
0.0213351
0.0213169
0.0213063
0.0213062
0.021316
0.0213325
0.0213533
0.021375
0.0213941
0.0214103
0.0214228
0.0214318
0.0214387
0.0214433
0.0214465
0.0214484
0.0214497
0.0214504
0.0214511
0.0214513
0.0214515
0.0214517
0.0214514
0.0214515
0.0214515
0.0214516
0.0214515
0.0214515
0.0214515
0.0214515
0.0214515
0.0214515
0.0214515
0.0214515
0.0214515
0.0214515
0.0214515
0.0214515
0.0214515
0.0214515
0.0214515
0.0214515
0.0214515
0.0214511
0.0213428
0.0432676
0.0402975
0.0391489
0.0387289
0.0385801
0.0385275
0.0385076
0.0384987
0.0384923
0.0384857
0.0384769
0.0384644
0.0384468
0.0384244
0.0383976
0.0383715
0.038352
0.0383414
0.038342
0.0383548
0.0383756
0.0384017
0.0384276
0.0384503
0.0384681
0.0384818
0.0384916
0.0384984
0.038503
0.0385061
0.0385079
0.0385092
0.0385096
0.0385101
0.0385103
0.0385104
0.0385104
0.0385103
0.0385103
0.0385103
0.0385103
0.0385102
0.0385102
0.0385102
0.0385102
0.0385102
0.0385102
0.0385102
0.0385102
0.0385102
0.0385102
0.0385102
0.0385102
0.0385102
0.0385102
0.0385102
0.0385102
0.0385102
0.0385096
0.0383949
0.0472919
0.0459274
0.0453206
0.0450661
0.0449631
0.0449224
0.0449059
0.0448983
0.044894
0.0448903
0.044886
0.0448798
0.0448711
0.0448608
0.0448466
0.0448314
0.0448197
0.0448136
0.0448141
0.044824
0.0448376
0.0448524
0.0448663
0.0448779
0.0448865
0.0448928
0.044897
0.0448997
0.0449015
0.0449026
0.0449031
0.0449034
0.0449035
0.0449035
0.0449035
0.0449035
0.0449034
0.0449033
0.0449033
0.0449033
0.0449033
0.0449032
0.0449032
0.0449032
0.0449032
0.0449032
0.0449032
0.0449032
0.0449032
0.0449032
0.0449032
0.0449032
0.0449032
0.0449032
0.0449032
0.0449032
0.0449032
0.0449032
0.0449028
0.0448382
0.0486039
0.0478857
0.0475566
0.0474133
0.047353
0.047328
0.0473176
0.0473129
0.0473106
0.0473091
0.0473077
0.0473061
0.047305
0.04739
0.0474246
0.0474324
0.0474309
0.0474327
0.0474334
0.0474407
0.0474492
0.0473734
0.0473369
0.047322
0.0473169
0.0473155
0.0473153
0.0473154
0.0473155
0.0473155
0.0473154
0.0473154
0.0473152
0.0473151
0.047315
0.0473149
0.0473149
0.0473148
0.0473147
0.0473148
0.0473147
0.0473147
0.0473147
0.0473147
0.0473147
0.0473147
0.0473147
0.0473147
0.0473147
0.0473147
0.0473147
0.0473147
0.0473147
0.0473147
0.0473147
0.0473147
0.0473147
0.0473147
0.0473145
0.0472783
0.0491548
0.0487195
0.0485195
0.0484319
0.0483947
0.0483791
0.0483726
0.0483698
0.0483686
0.0483682
0.0483684
0.0483699
0.0484346
0.0489175
0.0493517
0.0493673
0.0493718
0.0493836
0.0493716
0.0493729
0.0493764
0.0489705
0.0486252
0.048475
0.048413
0.0483881
0.0483782
0.0483743
0.0483727
0.0483719
0.0483714
0.0483712
0.048371
0.0483708
0.0483707
0.0483707
0.0483706
0.0483706
0.0483705
0.0483705
0.0483705
0.0483705
0.0483705
0.0483705
0.0483705
0.0483705
0.0483705
0.0483705
0.0483705
0.0483705
0.0483705
0.0483705
0.0483705
0.0483705
0.0483705
0.0483705
0.0483705
0.0483705
0.0483703
0.0483481
0.0494342
0.0491431
0.0490094
0.048951
0.0489261
0.0489157
0.0489114
0.0489096
0.0489089
0.048909
0.0489101
0.0489199
0.0492777
0.0496902
0.0497691
0.0497551
0.049717
0.0497624
0.0497521
0.0497172
0.0497187
0.0493684
0.0491194
0.0490022
0.04895
0.0489275
0.048918
0.0489139
0.0489121
0.0489113
0.0489108
0.0489105
0.0489104
0.0489102
0.0489101
0.0489101
0.04891
0.04891
0.0489099
0.0489099
0.0489099
0.0489099
0.0489099
0.0489099
0.0489099
0.0489099
0.0489099
0.0489099
0.0489099
0.0489099
0.0489099
0.0489099
0.0489099
0.0489099
0.0489099
0.0489099
0.0489099
0.0489099
0.0489098
0.0488948
0.049595
0.0493868
0.0492913
0.0492496
0.0492319
0.0492245
0.0492214
0.0492201
0.0492197
0.0492199
0.0492209
0.0492289
0.0495602
0.049823
0.0499382
0.0499393
0.0499306
0.049938
0.0499363
0.049929
0.0498521
0.0495593
0.049378
0.0492912
0.0492518
0.0492345
0.049227
0.0492237
0.0492222
0.0492215
0.0492211
0.0492208
0.0492207
0.0492206
0.0492205
0.0492204
0.0492204
0.0492204
0.0492203
0.0492203
0.0492203
0.0492203
0.0492203
0.0492203
0.0492203
0.0492203
0.0492203
0.0492203
0.0492203
0.0492203
0.0492203
0.0492203
0.0492203
0.0492203
0.0492203
0.0492203
0.0492203
0.0492203
0.0492203
0.0492095
0.0496958
0.0495396
0.0494681
0.0494368
0.0494236
0.0494181
0.0494158
0.0494148
0.0494145
0.0494147
0.0494155
0.0494208
0.0496677
0.0498586
0.049961
0.0499588
0.0499563
0.0499526
0.0499588
0.0499559
0.0498842
0.0496706
0.0495357
0.0494699
0.0494397
0.0494262
0.0494203
0.0494176
0.0494164
0.0494158
0.0494155
0.0494154
0.0494152
0.0494151
0.0494151
0.049415
0.049415
0.049415
0.049415
0.049415
0.049415
0.049415
0.049415
0.049415
0.049415
0.049415
0.0494149
0.0494149
0.0494149
0.0494149
0.0494149
0.0494149
0.0494149
0.0494149
0.0494149
0.0494149
0.0494149
0.0494149
0.0494149
0.0494069
0.0497633
0.0496418
0.0495862
0.0495619
0.0495516
0.0495473
0.0495456
0.0495449
0.0495446
0.0495448
0.0495456
0.0495475
0.0496115
0.0497799
0.0499727
0.049966
0.0499664
0.0499662
0.0499659
0.0499664
0.0499121
0.0497447
0.0496402
0.0495887
0.0495647
0.049554
0.0495492
0.0495471
0.0495461
0.0495456
0.0495454
0.0495452
0.0495451
0.0495451
0.049545
0.049545
0.049545
0.049545
0.0495449
0.0495449
0.0495449
0.0495449
0.0495449
0.0495449
0.0495449
0.0495449
0.0495449
0.0495449
0.0495449
0.0495449
0.0495449
0.0495449
0.0495449
0.0495449
0.0495449
0.0495449
0.0495449
0.0495449
0.0495449
0.0495386
0.0498105
0.0497134
0.0496689
0.0496495
0.0496413
0.0496379
0.0496365
0.049636
0.0496358
0.049636
0.0496366
0.0496382
0.0496764
0.0498171
0.0499769
0.0499733
0.0499733
0.0499733
0.0499732
0.0499733
0.0499302
0.0497962
0.0497127
0.0496715
0.0496521
0.0496433
0.0496394
0.0496377
0.0496369
0.0496365
0.0496363
0.0496362
0.0496361
0.0496361
0.0496361
0.049636
0.049636
0.049636
0.049636
0.049636
0.049636
0.049636
0.049636
0.049636
0.049636
0.049636
0.049636
0.049636
0.049636
0.049636
0.049636
0.049636
0.049636
0.049636
0.049636
0.049636
0.049636
0.049636
0.049636
0.0496309
0.049845
0.0497655
0.0497291
0.0497133
0.0497066
0.0497039
0.0497027
0.0497023
0.0497022
0.0497023
0.0497027
0.0497062
0.0498106
0.0499252
0.0499811
0.0499776
0.0499783
0.0499783
0.0499776
0.0499783
0.0499431
0.0498333
0.0497648
0.0497312
0.0497154
0.0497082
0.049705
0.0497036
0.0497029
0.0497026
0.0497025
0.0497024
0.0497024
0.0497023
0.0497023
0.0497023
0.0497023
0.0497023
0.0497022
0.0497022
0.0497022
0.0497022
0.0497022
0.0497022
0.0497022
0.0497022
0.0497022
0.0497022
0.0497022
0.0497022
0.0497022
0.0497022
0.0497022
0.0497022
0.0497022
0.0497022
0.0497022
0.0497022
0.0497022
0.0496981
0.0498708
0.0498046
0.0497743
0.0497612
0.0497556
0.0497533
0.0497524
0.0497521
0.049752
0.0497521
0.0497524
0.0497549
0.0498612
0.0499414
0.0499822
0.0499825
0.0499825
0.0499855
0.0499822
0.0499819
0.0499562
0.0498603
0.0498031
0.0497754
0.0497625
0.0497567
0.0497541
0.049753
0.0497525
0.0497522
0.0497521
0.0497521
0.049752
0.049752
0.049752
0.049752
0.049752
0.0497519
0.0497519
0.0497519
0.0497519
0.0497519
0.0497519
0.0497519
0.0497519
0.0497519
0.0497519
0.0497519
0.0497519
0.0497519
0.0497519
0.0497519
0.0497519
0.0497519
0.0497519
0.0497519
0.0497519
0.0497519
0.0497519
0.0497485
0.0498907
0.0498347
0.0498091
0.049798
0.0497933
0.0497914
0.0497906
0.0497903
0.0497903
0.0497904
0.0497906
0.0497914
0.0498197
0.0498987
0.0499837
0.0499642
0.0499595
0.0499822
0.0499643
0.0499597
0.0499592
0.0498796
0.0498319
0.049809
0.0497985
0.0497939
0.0497918
0.049791
0.0497906
0.0497904
0.0497903
0.0497903
0.0497902
0.0497902
0.0497902
0.0497902
0.0497902
0.0497902
0.0497902
0.0497902
0.0497902
0.0497902
0.0497902
0.0497902
0.0497902
0.0497902
0.0497902
0.0497902
0.0497902
0.0497902
0.0497902
0.0497902
0.0497902
0.0497902
0.0497902
0.0497902
0.0497902
0.0497902
0.0497901
0.0497873
0.0499063
0.0498583
0.0498364
0.0498269
0.0498229
0.0498212
0.0498206
0.0498203
0.0498203
0.0498203
0.0498204
0.0498206
0.0498241
0.0499008
0.0499548
0.0499559
0.049908
0.049932
0.0499549
0.0499543
0.0499537
0.0498931
0.0498538
0.0498351
0.0498267
0.0498231
0.0498215
0.0498208
0.0498205
0.0498204
0.0498203
0.0498203
0.0498202
0.0498202
0.0498202
0.0498202
0.0498202
0.0498202
0.0498202
0.0498202
0.0498202
0.0498202
0.0498202
0.0498202
0.0498202
0.0498202
0.0498202
0.0498202
0.0498202
0.0498202
0.0498202
0.0498202
0.0498202
0.0498202
0.0498202
0.0498202
0.0498202
0.0498202
0.0498202
0.0498177
0.0499188
0.0498772
0.0498583
0.04985
0.0498465
0.0498451
0.0498446
0.0498443
0.0498443
0.0498442
0.0498442
0.0498443
0.0498445
0.049857
0.0498636
0.049866
0.0498593
0.0498636
0.0498657
0.0498666
0.0498667
0.0498582
0.049852
0.0498483
0.0498463
0.0498453
0.0498447
0.0498445
0.0498444
0.0498443
0.0498443
0.0498443
0.0498442
0.0498442
0.0498442
0.0498442
0.0498442
0.0498442
0.0498442
0.0498442
0.0498442
0.0498442
0.0498442
0.0498442
0.0498442
0.0498442
0.0498442
0.0498442
0.0498442
0.0498442
0.0498442
0.0498442
0.0498442
0.0498442
0.0498442
0.0498442
0.0498442
0.0498442
0.0498442
0.0498421
0.0499289
0.0498926
0.049876
0.0498688
0.0498658
0.0498645
0.049864
0.0498638
0.0498637
0.0498637
0.0498637
0.0498636
0.0498636
0.0498644
0.0498653
0.0498658
0.0498656
0.0498657
0.0498659
0.049866
0.049866
0.0498656
0.049865
0.0498645
0.0498642
0.049864
0.0498639
0.0498638
0.0498638
0.0498638
0.0498638
0.0498638
0.0498637
0.0498637
0.0498637
0.0498637
0.0498637
0.0498637
0.0498637
0.0498637
0.0498637
0.0498637
0.0498637
0.0498637
0.0498637
0.0498637
0.0498637
0.0498637
0.0498637
0.0498637
0.0498637
0.0498637
0.0498637
0.0498637
0.0498637
0.0498637
0.0498637
0.0498637
0.0498637
0.0498618
0.0499372
0.0499049
0.0498902
0.0498837
0.049881
0.0498799
0.0498794
0.0498793
0.0498792
0.0498791
0.0498791
0.0498791
0.049879
0.049879
0.0498792
0.0498793
0.0498794
0.0498794
0.0498794
0.0498794
0.0498794
0.0498794
0.0498794
0.0498793
0.0498793
0.0498793
0.0498792
0.0498792
0.0498792
0.0498792
0.0498792
0.0498792
0.0498792
0.0498792
0.0498792
0.0498792
0.0498792
0.0498792
0.0498792
0.0498792
0.0498792
0.0498792
0.0498792
0.0498792
0.0498792
0.0498792
0.0498792
0.0498792
0.0498792
0.0498792
0.0498792
0.0498792
0.0498792
0.0498792
0.0498792
0.0498792
0.0498792
0.0498792
0.0498792
0.0498775
0.04994
0.0499066
0.0498902
0.0498824
0.0498789
0.0498773
0.0498766
0.0498764
0.0498762
0.0498762
0.0498761
0.0498761
0.0498761
0.0498761
0.0498761
0.0498767
0.049877
0.0498771
0.0498772
0.0498767
0.0498764
0.0498763
0.0498763
0.0498762
0.0498762
0.0498762
0.0498762
0.0498762
0.0498762
0.0498762
0.0498762
0.0498762
0.0498762
0.0498762
0.0498762
0.0498762
0.0498762
0.0498762
0.0498762
0.0498762
0.0498762
0.0498762
0.0498762
0.0498762
0.0498762
0.0498762
0.0498762
0.0498762
0.0498762
0.0498762
0.0498762
0.0498762
0.0498762
0.0498762
0.0498762
0.0498762
0.0498762
0.0498762
0.0498762
0.0498743
0.0281446
0.0232147
0.0222062
0.0220054
0.021965
0.021956
0.0219525
0.0219489
0.0219455
0.0219407
0.0219341
0.0219247
0.0219113
0.021893
0.0218707
0.0218472
0.0218286
0.0218177
0.0218168
0.0218251
0.02184
0.0218599
0.0218811
0.0219004
0.0219174
0.0219299
0.0219397
0.0219467
0.0219516
0.021955
0.021957
0.0219583
0.0219592
0.0219597
0.0219601
0.0219603
0.0219605
0.0219603
0.0219604
0.0219603
0.0219604
0.0219604
0.0219604
0.0219604
0.0219604
0.0219604
0.0219604
0.0219604
0.0219604
0.0219604
0.0219604
0.0219604
0.0219604
0.0219604
0.0219604
0.0219604
0.0219604
0.0219604
0.02196
0.0218538
0.0434792
0.0407033
0.0396693
0.0393051
0.0391802
0.0391376
0.0391216
0.0391142
0.0391086
0.0391029
0.0390955
0.0390848
0.0390694
0.0390488
0.0390231
0.0389979
0.0389791
0.0389689
0.038968
0.0389779
0.0389952
0.0390187
0.0390429
0.0390651
0.039083
0.0390966
0.0391064
0.0391134
0.0391184
0.0391214
0.0391233
0.0391246
0.0391251
0.0391254
0.0391258
0.0391258
0.0391261
0.0391259
0.039126
0.0391259
0.0391258
0.0391258
0.0391258
0.0391258
0.0391258
0.0391258
0.0391258
0.0391258
0.0391258
0.0391258
0.0391258
0.0391258
0.0391258
0.0391258
0.0391258
0.0391258
0.0391258
0.0391258
0.0391253
0.0390179
0.0473986
0.0461429
0.0456077
0.0453921
0.0453081
0.045276
0.0452633
0.0452573
0.0452539
0.0452511
0.0452477
0.0452429
0.0452354
0.0452256
0.0452119
0.0451973
0.0451864
0.0451803
0.0451795
0.0451866
0.045197
0.0452103
0.045224
0.0452359
0.045245
0.0452515
0.0452558
0.0452587
0.0452606
0.0452617
0.0452622
0.0452626
0.0452627
0.0452627
0.0452627
0.0452628
0.0452627
0.0452627
0.0452627
0.0452626
0.0452626
0.0452626
0.0452626
0.0452626
0.0452626
0.0452626
0.0452626
0.0452626
0.0452626
0.0452626
0.0452626
0.0452626
0.0452626
0.0452626
0.0452626
0.0452626
0.0452626
0.0452626
0.0452623
0.0452035
0.0486614
0.0480035
0.0477153
0.0475951
0.0475464
0.047527
0.047519
0.0475156
0.0475138
0.0475127
0.0475125
0.0475118
0.047509
0.0475835
0.0476136
0.0476198
0.0476206
0.0476174
0.0476173
0.0476216
0.0476266
0.0475583
0.0475292
0.0475193
0.0475169
0.0475169
0.0475175
0.0475179
0.0475181
0.0475182
0.0475182
0.0475181
0.0475181
0.047518
0.0475179
0.0475178
0.0475178
0.0475178
0.0475177
0.0475177
0.0475177
0.0475177
0.0475177
0.0475177
0.0475177
0.0475177
0.0475177
0.0475177
0.0475177
0.0475177
0.0475177
0.0475177
0.0475177
0.0475177
0.0475177
0.0475177
0.0475177
0.0475177
0.0475175
0.047485
0.0491899
0.0487916
0.0486167
0.0485434
0.0485135
0.0485015
0.0484966
0.0484945
0.0484936
0.0484942
0.0484965
0.0485028
0.0485661
0.0491034
0.0494541
0.0494662
0.0494706
0.0494809
0.0494704
0.0494728
0.0494763
0.0490309
0.0487116
0.0485798
0.0485282
0.0485085
0.0485011
0.0484983
0.0484971
0.0484965
0.0484962
0.048496
0.0484958
0.0484957
0.0484956
0.0484956
0.0484955
0.0484955
0.0484955
0.0484955
0.0484954
0.0484954
0.0484954
0.0484954
0.0484954
0.0484954
0.0484954
0.0484954
0.0484954
0.0484954
0.0484954
0.0484954
0.0484954
0.0484954
0.0484954
0.0484954
0.0484954
0.0484954
0.0484953
0.0484754
0.0494577
0.0491914
0.0490747
0.0490258
0.0490059
0.0489978
0.0489945
0.0489932
0.0489928
0.0489937
0.0489967
0.0490108
0.0494111
0.0497527
0.049909
0.0497936
0.0497624
0.0498899
0.0497922
0.0497681
0.0497995
0.049405
0.0491713
0.0490681
0.0490248
0.0490071
0.0489999
0.0489969
0.0489955
0.0489949
0.0489945
0.0489942
0.0489941
0.048994
0.0489939
0.0489938
0.0489938
0.0489938
0.0489937
0.0489937
0.0489937
0.0489937
0.0489937
0.0489937
0.0489937
0.0489937
0.0489937
0.0489937
0.0489937
0.0489937
0.0489937
0.0489937
0.0489937
0.0489937
0.0489937
0.0489937
0.0489937
0.0489937
0.0489936
0.0489802
0.0496118
0.0494214
0.049338
0.0493031
0.0492889
0.0492832
0.0492809
0.0492799
0.0492796
0.0492802
0.0492818
0.0492905
0.0496389
0.0499332
0.0499905
0.049989
0.0499857
0.0499865
0.0499874
0.0499858
0.0499459
0.0495813
0.0494116
0.0493363
0.0493044
0.049291
0.0492854
0.049283
0.0492819
0.0492813
0.0492809
0.0492807
0.0492806
0.0492805
0.0492804
0.0492804
0.0492803
0.0492803
0.0492803
0.0492803
0.0492803
0.0492803
0.0492803
0.0492803
0.0492803
0.0492803
0.0492803
0.0492803
0.0492803
0.0492803
0.0492803
0.0492803
0.0492803
0.0492803
0.0492803
0.0492803
0.0492803
0.0492803
0.0492802
0.0492706
0.0497085
0.0495656
0.0495031
0.049477
0.0494664
0.0494621
0.0494604
0.0494596
0.0494594
0.0494596
0.0494602
0.0494654
0.0497284
0.0499486
0.0499797
0.049975
0.0499594
0.0499749
0.0499743
0.0499588
0.049955
0.0496872
0.0495603
0.0495033
0.0494788
0.0494685
0.0494641
0.0494622
0.0494612
0.0494607
0.0494605
0.0494603
0.0494602
0.0494601
0.0494601
0.04946
0.04946
0.04946
0.04946
0.04946
0.0494599
0.0494599
0.0494599
0.0494599
0.0494599
0.0494599
0.0494599
0.0494599
0.0494599
0.0494599
0.0494599
0.0494599
0.0494599
0.0494599
0.0494599
0.0494599
0.0494599
0.0494599
0.0494599
0.0494527
0.0497731
0.049662
0.0496134
0.0495931
0.0495849
0.0495816
0.0495803
0.0495797
0.0495795
0.0495795
0.0495799
0.0495838
0.0497562
0.0499492
0.0499781
0.0499721
0.0499688
0.049971
0.0499717
0.0499685
0.0499654
0.0497573
0.0496591
0.0496145
0.0495951
0.0495869
0.0495833
0.0495817
0.0495809
0.0495805
0.0495803
0.0495802
0.0495801
0.04958
0.04958
0.04958
0.0495799
0.0495799
0.0495799
0.0495799
0.0495799
0.0495799
0.0495799
0.0495799
0.0495799
0.0495799
0.0495799
0.0495799
0.0495799
0.0495799
0.0495799
0.0495799
0.0495799
0.0495799
0.0495799
0.0495799
0.0495799
0.0495799
0.0495799
0.0495743
0.0498185
0.0497296
0.0496907
0.0496745
0.049668
0.0496653
0.0496643
0.0496638
0.0496637
0.0496637
0.049664
0.0496673
0.0498028
0.0499574
0.0499814
0.0499755
0.0499752
0.0499753
0.0499753
0.0499749
0.0499723
0.0498061
0.0497276
0.049692
0.0496764
0.0496696
0.0496667
0.0496654
0.0496648
0.0496645
0.0496643
0.0496642
0.0496641
0.0496641
0.049664
0.049664
0.049664
0.049664
0.049664
0.049664
0.049664
0.049664
0.049664
0.049664
0.049664
0.049664
0.049664
0.049664
0.049664
0.049664
0.049664
0.049664
0.049664
0.049664
0.049664
0.049664
0.049664
0.049664
0.0496639
0.0496595
0.0498514
0.0497787
0.049747
0.0497338
0.0497284
0.0497263
0.0497254
0.0497251
0.049725
0.0497251
0.0497253
0.0497283
0.0498621
0.0499739
0.0499871
0.0499833
0.0499799
0.0499822
0.0499833
0.0499796
0.0499775
0.0498409
0.0497767
0.0497478
0.0497351
0.0497297
0.0497273
0.0497262
0.0497257
0.0497255
0.0497253
0.0497253
0.0497252
0.0497252
0.0497252
0.0497251
0.0497251
0.0497251
0.0497251
0.0497251
0.0497251
0.0497251
0.0497251
0.0497251
0.0497251
0.0497251
0.0497251
0.0497251
0.0497251
0.0497251
0.0497251
0.0497251
0.0497251
0.0497251
0.0497251
0.0497251
0.0497251
0.0497251
0.0497251
0.0497214
0.0498762
0.0498156
0.0497892
0.0497782
0.0497737
0.049772
0.0497713
0.049771
0.049771
0.0497711
0.0497715
0.0497743
0.0498873
0.0499798
0.0499975
0.0499897
0.0499834
0.0499916
0.0499893
0.049983
0.0499836
0.0498652
0.0498126
0.049789
0.0497789
0.0497745
0.0497727
0.0497718
0.0497715
0.0497713
0.0497712
0.0497711
0.0497711
0.049771
0.049771
0.049771
0.049771
0.049771
0.049771
0.049771
0.049771
0.049771
0.049771
0.049771
0.049771
0.049771
0.049771
0.049771
0.049771
0.049771
0.049771
0.049771
0.049771
0.049771
0.049771
0.049771
0.049771
0.049771
0.049771
0.0497679
0.0498952
0.049844
0.0498217
0.0498124
0.0498086
0.0498071
0.0498066
0.0498064
0.0498063
0.0498064
0.0498066
0.0498084
0.0498895
0.0499776
0.0499961
0.0499877
0.0499858
0.0499872
0.0499877
0.049986
0.0499908
0.0498863
0.0498413
0.0498213
0.0498127
0.0498091
0.0498076
0.0498069
0.0498066
0.0498065
0.0498064
0.0498064
0.0498063
0.0498063
0.0498063
0.0498063
0.0498063
0.0498063
0.0498063
0.0498063
0.0498063
0.0498063
0.0498063
0.0498063
0.0498063
0.0498063
0.0498063
0.0498063
0.0498063
0.0498063
0.0498063
0.0498063
0.0498063
0.0498063
0.0498063
0.0498063
0.0498063
0.0498063
0.0498063
0.0498037
0.0499102
0.0498663
0.0498472
0.0498392
0.049836
0.0498347
0.0498342
0.0498341
0.049834
0.049834
0.0498341
0.0498342
0.049848
0.0499204
0.0499629
0.0499611
0.049954
0.0499612
0.049961
0.0499604
0.0499628
0.049899
0.0498626
0.0498462
0.0498392
0.0498362
0.049835
0.0498345
0.0498342
0.0498341
0.0498341
0.0498341
0.049834
0.049834
0.049834
0.049834
0.049834
0.049834
0.049834
0.049834
0.049834
0.049834
0.049834
0.049834
0.049834
0.049834
0.049834
0.049834
0.049834
0.049834
0.049834
0.049834
0.049834
0.049834
0.049834
0.049834
0.049834
0.049834
0.049834
0.0498318
0.0499222
0.0498842
0.0498676
0.0498607
0.0498579
0.0498568
0.0498564
0.0498562
0.0498562
0.0498561
0.0498561
0.049856
0.0498568
0.0498671
0.0498725
0.0498748
0.0498748
0.049875
0.0498753
0.0498755
0.0498754
0.0498678
0.0498624
0.0498594
0.0498578
0.049857
0.0498566
0.0498564
0.0498563
0.0498563
0.0498562
0.0498562
0.0498562
0.0498562
0.0498562
0.0498562
0.0498562
0.0498562
0.0498562
0.0498562
0.0498562
0.0498562
0.0498562
0.0498562
0.0498562
0.0498562
0.0498562
0.0498562
0.0498562
0.0498562
0.0498562
0.0498562
0.0498562
0.0498562
0.0498562
0.0498562
0.0498562
0.0498562
0.0498561
0.0498542
0.0499319
0.0498987
0.0498842
0.0498781
0.0498757
0.0498748
0.0498744
0.0498742
0.0498742
0.0498741
0.0498741
0.049874
0.0498741
0.0498746
0.0498759
0.0498766
0.0498768
0.0498768
0.0498768
0.0498764
0.0498761
0.0498756
0.0498751
0.0498748
0.0498746
0.0498744
0.0498743
0.0498743
0.0498742
0.0498742
0.0498742
0.0498742
0.0498742
0.0498742
0.0498742
0.0498742
0.0498742
0.0498742
0.0498742
0.0498742
0.0498742
0.0498742
0.0498742
0.0498742
0.0498742
0.0498742
0.0498742
0.0498742
0.0498742
0.0498742
0.0498742
0.0498742
0.0498742
0.0498742
0.0498742
0.0498742
0.0498742
0.0498742
0.0498742
0.0498725
0.0499398
0.0499103
0.0498974
0.0498921
0.0498899
0.049889
0.0498887
0.0498886
0.0498885
0.0498885
0.0498884
0.0498884
0.0498884
0.0498885
0.0498891
0.0498894
0.0498895
0.0498895
0.0498895
0.0498891
0.0498888
0.0498887
0.0498887
0.0498886
0.0498886
0.0498886
0.0498886
0.0498886
0.0498886
0.0498886
0.0498885
0.0498885
0.0498885
0.0498885
0.0498885
0.0498885
0.0498885
0.0498885
0.0498885
0.0498885
0.0498885
0.0498885
0.0498885
0.0498885
0.0498885
0.0498885
0.0498885
0.0498885
0.0498885
0.0498885
0.0498885
0.0498885
0.0498885
0.0498885
0.0498885
0.0498885
0.0498885
0.0498885
0.0498885
0.049887
0.0499426
0.0499122
0.0498979
0.0498915
0.0498887
0.0498875
0.049887
0.0498868
0.0498867
0.0498867
0.0498866
0.0498866
0.0498867
0.0498868
0.0498872
0.0498874
0.0498875
0.0498876
0.0498876
0.0498872
0.0498869
0.0498868
0.0498867
0.0498867
0.0498867
0.0498867
0.0498867
0.0498867
0.0498867
0.0498867
0.0498867
0.0498867
0.0498867
0.0498867
0.0498867
0.0498867
0.0498867
0.0498867
0.0498867
0.0498867
0.0498867
0.0498867
0.0498867
0.0498867
0.0498867
0.0498867
0.0498867
0.0498867
0.0498867
0.0498867
0.0498867
0.0498867
0.0498867
0.0498867
0.0498867
0.0498867
0.0498867
0.0498867
0.0498867
0.049885
0.0281532
0.0232317
0.0222268
0.0220273
0.0219875
0.0219787
0.0219753
0.0219721
0.0219693
0.0219653
0.0219598
0.0219517
0.0219398
0.0219235
0.0219023
0.0218798
0.0218616
0.021851
0.0218498
0.0218568
0.0218698
0.0218879
0.0219073
0.0219257
0.0219416
0.0219536
0.0219629
0.0219695
0.0219741
0.0219775
0.0219794
0.0219807
0.0219814
0.0219821
0.0219825
0.0219824
0.0219827
0.0219826
0.0219827
0.0219826
0.0219827
0.0219827
0.0219827
0.0219827
0.0219827
0.0219827
0.0219827
0.0219827
0.0219827
0.0219827
0.0219827
0.0219827
0.0219827
0.0219827
0.0219827
0.0219827
0.0219827
0.0219827
0.0219823
0.0218764
0.0434941
0.0407357
0.0397145
0.0393573
0.0392361
0.0391953
0.0391802
0.0391733
0.0391684
0.0391633
0.039157
0.0391477
0.039134
0.0391149
0.0390907
0.0390666
0.0390483
0.0390379
0.0390364
0.0390438
0.0390588
0.0390805
0.0391037
0.0391249
0.0391423
0.0391554
0.0391651
0.0391721
0.0391767
0.0391799
0.0391818
0.0391829
0.0391835
0.0391839
0.0391842
0.0391842
0.0391844
0.0391843
0.0391844
0.0391843
0.0391843
0.0391843
0.0391843
0.0391843
0.0391843
0.0391843
0.0391843
0.0391843
0.0391843
0.0391843
0.0391843
0.0391843
0.0391843
0.0391843
0.0391843
0.0391843
0.0391843
0.0391843
0.0391837
0.0390774
0.0474071
0.0461629
0.0456368
0.0454269
0.0453462
0.0453156
0.0453037
0.0452982
0.0452951
0.0452925
0.0452896
0.0452854
0.0452784
0.0452691
0.0452564
0.0452425
0.0452318
0.0452256
0.045224
0.0452282
0.0452365
0.0452493
0.0452634
0.0452754
0.0452847
0.0452917
0.0452963
0.0452994
0.0453012
0.0453025
0.045303
0.0453034
0.0453036
0.0453035
0.0453036
0.0453036
0.0453036
0.0453035
0.0453036
0.0453035
0.0453035
0.0453035
0.0453034
0.0453034
0.0453034
0.0453034
0.0453034
0.0453034
0.0453034
0.0453034
0.0453034
0.0453034
0.0453034
0.0453034
0.0453034
0.0453034
0.0453034
0.0453034
0.0453031
0.0452453
0.0486662
0.0480149
0.0477321
0.0476155
0.0475688
0.0475505
0.0475431
0.0475398
0.0475382
0.0475381
0.0475392
0.0475398
0.0475366
0.0476062
0.0476367
0.0476411
0.0476413
0.0476386
0.047637
0.0476379
0.0476416
0.0475751
0.0475483
0.0475402
0.0475392
0.0475402
0.0475412
0.047542
0.0475424
0.0475426
0.0475425
0.0475425
0.0475425
0.0475424
0.0475423
0.0475423
0.0475422
0.0475422
0.0475422
0.0475421
0.0475421
0.0475421
0.0475421
0.0475421
0.0475421
0.0475421
0.0475421
0.0475421
0.0475421
0.0475421
0.0475421
0.0475421
0.0475421
0.0475421
0.0475421
0.0475421
0.0475421
0.0475421
0.0475419
0.04751
0.0491928
0.0487985
0.0486271
0.048556
0.0485275
0.0485161
0.0485115
0.0485095
0.048509
0.0485102
0.0485138
0.0485238
0.0485847
0.0491085
0.0494654
0.049463
0.0494654
0.04947
0.0494662
0.0494678
0.0494718
0.0490335
0.0487175
0.048589
0.0485401
0.048522
0.0485155
0.0485131
0.0485122
0.0485117
0.0485114
0.0485112
0.0485111
0.048511
0.0485109
0.0485108
0.0485108
0.0485107
0.0485107
0.0485107
0.0485107
0.0485107
0.0485107
0.0485107
0.0485107
0.0485107
0.0485107
0.0485107
0.0485107
0.0485107
0.0485107
0.0485107
0.0485107
0.0485107
0.0485107
0.0485107
0.0485107
0.0485107
0.0485106
0.048491
0.0494597
0.0491961
0.0490816
0.0490342
0.0490152
0.0490076
0.0490045
0.0490032
0.0490031
0.0490044
0.0490084
0.0490273
0.0494228
0.049748
0.0499114
0.0497928
0.0497626
0.0498857
0.0497918
0.0497693
0.0499086
0.0494032
0.049172
0.0490723
0.0490317
0.0490157
0.0490094
0.0490068
0.0490056
0.049005
0.0490047
0.0490045
0.0490043
0.0490042
0.0490041
0.0490041
0.049004
0.049004
0.049004
0.049004
0.049004
0.0490039
0.0490039
0.0490039
0.0490039
0.0490039
0.0490039
0.0490039
0.0490039
0.0490039
0.0490039
0.0490039
0.0490039
0.0490039
0.0490039
0.0490039
0.0490039
0.0490039
0.0490039
0.0489907
0.0496132
0.0494248
0.049343
0.0493092
0.0492956
0.0492902
0.049288
0.049287
0.0492868
0.0492873
0.0492889
0.0492983
0.0496458
0.0499459
0.049965
0.0499524
0.0499431
0.049949
0.0499523
0.0499433
0.0499935
0.0495735
0.0494085
0.0493375
0.0493085
0.0492969
0.0492921
0.04929
0.0492891
0.0492885
0.0492882
0.049288
0.0492879
0.0492878
0.0492878
0.0492877
0.0492877
0.0492876
0.0492876
0.0492876
0.0492876
0.0492876
0.0492876
0.0492876
0.0492876
0.0492876
0.0492876
0.0492876
0.0492876
0.0492876
0.0492876
0.0492876
0.0492876
0.0492876
0.0492876
0.0492876
0.0492876
0.0492876
0.0492876
0.0492782
0.0497096
0.0495682
0.0495069
0.0494816
0.0494714
0.0494673
0.0494657
0.0494649
0.0494645
0.0494644
0.0494642
0.0494664
0.0497281
0.0499534
0.0498696
0.0498684
0.0498724
0.0498721
0.049869
0.0498771
0.0499583
0.0496838
0.0495586
0.0495042
0.0494819
0.0494729
0.0494691
0.0494674
0.0494666
0.0494662
0.049466
0.0494658
0.0494657
0.0494656
0.0494656
0.0494655
0.0494655
0.0494655
0.0494654
0.0494654
0.0494654
0.0494654
0.0494654
0.0494654
0.0494654
0.0494654
0.0494654
0.0494654
0.0494654
0.0494654
0.0494654
0.0494654
0.0494654
0.0494654
0.0494654
0.0494654
0.0494654
0.0494654
0.0494654
0.0494583
0.049774
0.049664
0.0496163
0.0495967
0.0495888
0.0495857
0.0495844
0.0495838
0.0495834
0.049583
0.0495825
0.0495836
0.0497864
0.0499592
0.0499051
0.0499024
0.0499031
0.0499018
0.0499013
0.0499067
0.0499678
0.0497552
0.0496578
0.0496152
0.0495975
0.0495903
0.0495872
0.0495858
0.0495852
0.0495848
0.0495846
0.0495845
0.0495844
0.0495843
0.0495843
0.0495842
0.0495842
0.0495842
0.0495842
0.0495842
0.0495842
0.0495842
0.0495842
0.0495842
0.0495842
0.0495842
0.0495842
0.0495842
0.0495842
0.0495842
0.0495842
0.0495842
0.0495842
0.0495842
0.0495842
0.0495842
0.0495842
0.0495842
0.0495841
0.0495787
0.0498191
0.0497311
0.0496931
0.0496774
0.0496711
0.0496686
0.0496676
0.0496671
0.0496668
0.0496665
0.0496661
0.0496675
0.0498295
0.049967
0.0499261
0.0499235
0.0499235
0.049923
0.0499225
0.0499259
0.0499744
0.0498044
0.0497265
0.0496925
0.0496782
0.0496723
0.0496698
0.0496687
0.0496682
0.0496679
0.0496677
0.0496676
0.0496675
0.0496675
0.0496674
0.0496674
0.0496674
0.0496674
0.0496674
0.0496674
0.0496674
0.0496674
0.0496674
0.0496674
0.0496674
0.0496674
0.0496674
0.0496674
0.0496674
0.0496674
0.0496674
0.0496674
0.0496674
0.0496674
0.0496674
0.0496674
0.0496674
0.0496674
0.0496673
0.049663
0.049852
0.04978
0.0497489
0.0497361
0.0497309
0.0497289
0.0497281
0.0497278
0.0497276
0.0497275
0.0497274
0.0497288
0.0498623
0.0499732
0.0499362
0.0499358
0.0499376
0.0499352
0.0499357
0.0499396
0.0499792
0.0498391
0.0497757
0.0497481
0.0497366
0.0497319
0.0497298
0.0497289
0.0497285
0.0497283
0.0497281
0.0497281
0.049728
0.049728
0.049728
0.0497279
0.0497279
0.0497279
0.0497279
0.0497279
0.0497279
0.0497279
0.0497279
0.0497279
0.0497279
0.0497279
0.0497279
0.0497279
0.0497279
0.0497279
0.0497279
0.0497279
0.0497279
0.0497279
0.0497279
0.0497279
0.0497279
0.0497279
0.0497279
0.0497243
0.0498766
0.0498167
0.0497908
0.0497801
0.0497759
0.0497742
0.0497735
0.0497733
0.0497732
0.0497733
0.0497736
0.0497762
0.0498881
0.0499809
0.0499773
0.0499549
0.0499518
0.0499731
0.0499547
0.0499522
0.0499948
0.0498632
0.0498116
0.0497894
0.0497802
0.0497764
0.0497748
0.0497741
0.0497738
0.0497736
0.0497735
0.0497734
0.0497734
0.0497734
0.0497733
0.0497733
0.0497733
0.0497733
0.0497733
0.0497733
0.0497733
0.0497733
0.0497733
0.0497733
0.0497733
0.0497733
0.0497733
0.0497733
0.0497733
0.0497733
0.0497733
0.0497733
0.0497733
0.0497733
0.0497733
0.0497733
0.0497733
0.0497733
0.0497733
0.0497703
0.0498956
0.0498449
0.049823
0.049814
0.0498104
0.049809
0.0498085
0.0498083
0.0498082
0.0498082
0.0498084
0.0498099
0.0499049
0.0499822
0.0499978
0.0499881
0.0499854
0.0499872
0.0499879
0.0499856
0.0499968
0.0498862
0.0498417
0.0498222
0.0498141
0.0498108
0.0498094
0.0498088
0.0498086
0.0498084
0.0498084
0.0498083
0.0498083
0.0498083
0.0498083
0.0498082
0.0498082
0.0498082
0.0498082
0.0498082
0.0498082
0.0498082
0.0498082
0.0498082
0.0498082
0.0498082
0.0498082
0.0498082
0.0498082
0.0498082
0.0498082
0.0498082
0.0498082
0.0498082
0.0498082
0.0498082
0.0498082
0.0498082
0.0498082
0.0498057
0.0499105
0.0498671
0.0498483
0.0498406
0.0498375
0.0498363
0.0498359
0.0498357
0.0498357
0.0498356
0.0498356
0.0498354
0.0498494
0.0499195
0.049962
0.0499603
0.049959
0.0499613
0.0499599
0.049959
0.0499623
0.0498994
0.0498633
0.0498473
0.0498405