/*--------------------------------*- C++ -*----------------------------------*\
  =========                 |
  \\      /  F ield         | OpenFOAM: The Open Source CFD Toolbox
   \\    /   O peration     | Website:  https://openfoam.org
    \\  /    A nd           | Version:  13
     \\/     M anipulation  |
\*---------------------------------------------------------------------------*/
FoamFile
{
    format      ascii;
    class       volScalarField;
    location    "2";
    object      p;
}
// * * * * * * * * * * * * * * * * * * * * * * * * * * * * * * * * * * * * * //

dimensions      [0 2 -2 0 0 0 0];

internalField   nonuniform List<scalar> 
54636
(
2.18424e-16
-9.68182e-15
-1.66844e-14
5.4836e-15
4.84189e-15
-4.27915e-14
-2.0502e-14
-7.9685e-15
-2.87118e-14
-2.84195e-14
-2.78704e-14
-2.13442e-14
-3.46468e-15
-8.83536e-15
-1.63782e-14
1.45339e-15
-1.71708e-14
2.46506e-14
2.78762e-14
9.92448e-15
-1.58168e-15
4.62861e-15
-1.9306e-14
9.68432e-15
3.69187e-14
9.59489e-15
-5.95575e-15
-4.43301e-15
2.36736e-15
-6.29862e-16
2.61814e-16
1.18554e-14
2.35005e-14
7.33731e-15
2.69797e-14
5.67419e-15
-1.47173e-15
-6.95815e-15
-5.29666e-15
8.21432e-15
1.81522e-14
8.87042e-15
-4.77586e-15
1.98231e-15
1.32654e-14
1.80055e-14
2.80243e-14
2.62253e-14
1.01061e-14
7.70141e-15
4.07573e-15
5.77017e-15
-4.86295e-15
1.45841e-14
2.39541e-14
-5.94989e-15
-3.68541e-15
1.34823e-14
9.9928e-15
1.1719e-14
-1.94061e-15
-9.22148e-15
-1.18849e-14
-2.86833e-16
7.83308e-15
-3.38515e-14
-2.7516e-14
-1.058e-14
-3.61227e-14
-2.74852e-14
-2.74306e-14
-1.96895e-14
-2.02513e-14
-6.00773e-15
-8.00505e-15
3.23003e-15
-1.0566e-14
1.99749e-14
2.82486e-14
1.12672e-14
4.90524e-15
1.43279e-15
-1.04956e-14
7.8817e-15
3.06912e-14
2.10762e-15
-1.02514e-14
-1.50389e-16
4.88549e-15
-7.62923e-15
1.21137e-14
2.01948e-14
3.04216e-14
7.94552e-15
2.22651e-14
1.02422e-14
-1.79732e-14
1.53165e-14
-1.2939e-14
-2.2062e-15
1.9945e-14
4.32464e-15
-5.02308e-15
9.32445e-15
1.68922e-14
1.49931e-14
2.25284e-14
3.00175e-14
3.57835e-15
1.11111e-14
9.80092e-15
9.70427e-15
-4.45797e-15
1.05898e-14
7.51169e-15
3.3095e-15
2.12988e-15
1.34128e-14
7.44224e-15
1.98013e-15
-2.41773e-15
-3.91578e-15
-1.73186e-14
-7.75168e-15
1.29686e-14
-2.59225e-14
-2.03278e-14
-1.18991e-14
-4.07078e-14
-2.39337e-14
-1.60066e-14
-2.46816e-14
-3.36738e-14
4.34909e-15
-1.63071e-15
-3.28798e-15
-1.09754e-14
1.82907e-14
2.62742e-14
2.54e-14
-4.72995e-15
-2.10874e-15
3.59568e-15
5.59516e-15
2.41297e-14
6.44649e-15
-7.15599e-15
-7.49875e-15
6.0038e-15
-3.88876e-15
9.90621e-15
2.55863e-14
1.4366e-14
7.51654e-15
1.57872e-14
6.96289e-15
-2.49279e-14
2.68442e-14
-1.40602e-15
-1.29331e-15
1.58942e-14
7.37925e-15
-7.94526e-15
1.34912e-14
1.86949e-14
1.55064e-14
2.18241e-14
3.09227e-14
5.5603e-15
6.74921e-15
1.01243e-14
7.53348e-15
-6.84119e-15
6.30462e-15
6.91799e-15
7.90944e-15
8.06312e-15
9.23459e-15
5.96679e-15
-6.73948e-16
-9.90654e-16
-8.21339e-15
-3.12897e-14
-2.99707e-15
8.44023e-15
-2.51007e-14
-7.9945e-15
-2.4557e-14
-3.29598e-14
-1.437e-14
-2.1839e-14
-1.92807e-14
-3.9516e-14
1.31508e-14
-6.29323e-15
-5.41721e-15
-3.90553e-15
1.1061e-14
2.55844e-14
1.63972e-14
-1.18766e-14
3.12277e-15
4.51131e-15
2.79983e-15
1.88711e-14
-1.20831e-15
-1.7413e-15
-1.96935e-16
1.78501e-14
-1.56488e-14
1.90454e-14
1.9878e-14
6.73083e-15
8.57883e-15
1.28981e-14
-1.95322e-15
-1.77919e-14
1.71607e-14
7.15195e-15
9.23706e-17
1.77188e-14
9.65459e-15
-1.1502e-14
1.60939e-14
2.79117e-14
1.07505e-14
2.1946e-14
3.09618e-14
1.06305e-14
4.30414e-15
4.25873e-15
6.76674e-15
-6.56449e-15
5.45082e-15
6.29086e-15
9.56427e-15
1.06208e-14
1.47205e-14
1.53612e-15
2.4209e-15
1.26396e-14
-1.1928e-14
-3.48942e-14
-1.01124e-14
4.9047e-15
-2.25255e-14
-8.75713e-15
-2.09346e-14
-3.26484e-14
-2.20778e-14
-2.34947e-14
-1.81511e-14
-4.3207e-14
-1.23148e-14
1.54735e-15
-1.31619e-14
3.51546e-16
1.04958e-14
1.52636e-14
1.84488e-14
1.5053e-14
6.99722e-15
2.67977e-15
-1.68313e-15
2.27923e-14
-1.13273e-14
-4.22699e-15
8.33547e-15
1.15489e-14
-1.34727e-14
1.70579e-14
2.77844e-14
2.20421e-16
4.70225e-15
-4.7788e-15
-5.26848e-15
-1.24738e-14
2.24449e-14
7.02929e-15
1.55062e-14
5.71429e-15
1.2416e-14
-8.20836e-15
9.0039e-15
2.45005e-14
1.33674e-14
2.15446e-14
2.1765e-14
1.99133e-14
1.0153e-14
-1.75039e-15
9.2014e-15
-8.13425e-16
2.06444e-15
1.12987e-15
1.0965e-15
1.21248e-14
1.36046e-14
5.97609e-15
7.50333e-15
1.31375e-14
-8.53406e-15
-3.14908e-14
-1.53598e-14
3.50526e-15
-2.49029e-14
-2.00771e-14
-9.76219e-15
-2.67443e-14
-1.27936e-14
-2.71888e-14
-1.04776e-14
-3.78917e-14
-2.67136e-14
7.6359e-15
-4.32085e-15
1.08488e-14
-1.00015e-14
2.13187e-14
-8.53709e-15
2.00497e-14
1.22834e-14
4.95068e-15
-4.32016e-15
-3.71515e-15
2.25818e-16
-1.02394e-14
2.10522e-14
1.4026e-14
-8.65984e-15
1.31608e-14
3.35478e-14
-3.18923e-15
-8.70711e-15
2.81005e-16
-7.6108e-15
6.56493e-15
1.62419e-14
-5.29553e-15
6.70782e-15
9.6392e-15
1.97917e-14
-2.74087e-15
9.52953e-15
2.34792e-14
9.49684e-15
1.90724e-14
2.18956e-14
2.2465e-14
1.38828e-14
-1.65753e-15
-3.49395e-15
3.99682e-15
5.43898e-15
-4.11008e-15
-5.12327e-16
1.66044e-14
1.09051e-14
2.65501e-15
2.21622e-15
9.28498e-15
-1.92449e-14
-2.04826e-14
-2.21476e-14
-1.2365e-15
-1.36215e-14
-2.98648e-14
-1.65904e-14
-2.70801e-14
-1.45021e-14
-1.5171e-14
-1.21284e-14
-1.32331e-14
-3.8097e-14
5.82785e-14
3.72667e-15
1.37763e-14
-1.33799e-14
-4.77028e-15
-1.99249e-14
6.67951e-15
1.64418e-15
1.66204e-15
7.31079e-15
6.13423e-15
-1.6135e-15
-1.32037e-14
8.19032e-15
2.63854e-14
-8.95942e-15
1.85237e-14
1.91998e-14
4.4416e-15
-1.43654e-14
-9.09401e-15
-4.2536e-15
4.94818e-15
1.61679e-14
1.13854e-14
8.73552e-15
1.58326e-14
2.56722e-14
-3.62642e-15
1.41874e-14
1.7734e-14
6.84303e-15
1.96106e-14
1.84748e-14
1.31881e-14
2.00592e-14
-2.39974e-15
4.94696e-15
1.11727e-14
-2.65725e-15
-6.39317e-17
2.29395e-15
9.60383e-15
5.70515e-15
1.40608e-14
7.05681e-15
-1.13571e-14
-6.4876e-15
-7.06215e-15
-2.27643e-14
-1.02905e-14
-2.64363e-14
-2.4416e-14
-1.29346e-14
-1.92149e-14
-9.98616e-15
-2.32886e-14
-5.00805e-15
-2.75574e-14
-2.92547e-14
-2.38421e-14
1.31274e-15
-1.6289e-15
-7.26338e-16
-2.3764e-14
-1.60899e-16
-5.0181e-15
-3.61514e-15
-2.43625e-15
9.7603e-15
1.04938e-14
1.10578e-15
-2.55668e-14
4.75173e-16
4.32687e-14
-6.38072e-15
9.98008e-15
1.61779e-14
2.5884e-15
-9.38621e-15
-1.7228e-14
2.41319e-15
1.32368e-14
1.38709e-14
2.35845e-14
3.69382e-15
1.11575e-14
2.74128e-14
3.15214e-15
1.00323e-14
2.12292e-14
3.16559e-15
2.89203e-14
1.25393e-14
5.86276e-15
1.54304e-14
3.28468e-15
1.02181e-14
8.15463e-15
-7.47151e-16
2.66814e-15
3.47421e-15
5.40835e-15
8.09771e-15
9.29762e-15
6.07478e-15
-1.72263e-14
-5.89396e-15
-2.50326e-15
-2.00532e-14
-1.70259e-14
-4.31663e-14
-3.17292e-14
3.0093e-15
-1.98836e-14
-1.41144e-14
-3.27664e-14
7.58931e-15
-1.84375e-14
-4.30249e-14
-1.72485e-14
-4.06628e-14
1.77682e-14
1.65832e-14
-1.1503e-14
4.33392e-14
2.68989e-15
-3.74189e-15
-8.79786e-15
7.97531e-15
7.90473e-15
-4.60615e-15
-1.23006e-14
-8.00959e-15
2.88527e-14
-4.95566e-16
-1.22313e-15
4.49444e-15
1.15416e-14
-2.14275e-15
-1.50779e-14
1.12397e-15
1.7293e-14
1.11291e-14
5.83634e-15
4.21166e-15
2.09376e-14
2.77965e-14
-1.19804e-15
8.3661e-15
2.56812e-14
1.14251e-14
3.14794e-14
1.56049e-14
-2.88989e-15
1.5706e-14
-7.02045e-15
1.6425e-14
1.58099e-14
7.4329e-15
-6.40551e-16
-2.30206e-15
1.02669e-14
1.01371e-14
7.02884e-15
3.76987e-15
-7.09821e-15
-1.61254e-14
-8.55478e-15
-2.61491e-14
-2.03954e-14
-3.99394e-14
-2.48566e-14
2.28815e-15
-2.04087e-14
-1.51806e-14
-2.82389e-14
-8.12391e-15
8.36826e-15
-1.59743e-14
-2.5313e-15
-1.96476e-14
-1.02419e-14
1.79096e-14
2.85529e-14
2.84923e-14
-7.55132e-15
-9.09154e-15
-4.99106e-15
5.86033e-16
5.63699e-15
-9.97499e-15
5.23296e-16
-1.44252e-14
2.00062e-14
-3.582e-15
-7.14631e-15
1.75551e-14
-4.7257e-15
-1.09222e-14
2.81666e-15
5.29662e-15
2.98094e-14
2.25618e-15
1.00081e-14
-9.22835e-15
1.84611e-14
3.06618e-14
1.12469e-14
3.82332e-15
1.97845e-14
2.162e-14
3.29845e-14
1.88722e-15
-2.11194e-15
1.21939e-14
1.07521e-14
1.57583e-14
1.36492e-14
1.88295e-15
8.12858e-16
2.80865e-15
8.17077e-15
1.19284e-14
2.33382e-15
-3.8838e-15
-5.16154e-15
-1.08565e-14
-2.25492e-14
-2.7967e-14
-3.16095e-14
-2.72618e-14
-1.69234e-14
1.03809e-14
-2.15852e-14
-1.94291e-14
-1.94043e-14
-9.23607e-15
-2.71084e-15
-7.43459e-15
1.74183e-14
-2.03622e-14
6.17692e-15
1.33598e-14
1.8049e-14
-2.3866e-14
-6.85457e-15
4.25735e-16
-2.95984e-15
-2.30639e-15
-3.32307e-15
-1.11614e-14
-4.74978e-15
-1.13974e-14
9.3838e-15
1.34943e-15
-5.20081e-15
1.79658e-14
-1.28257e-14
-1.73592e-14
1.29201e-14
2.81013e-14
2.979e-14
-2.16821e-15
-1.29091e-14
-2.8941e-15
2.40029e-14
3.14396e-14
1.07457e-14
-6.9547e-16
1.53208e-14
2.75257e-14
1.64065e-14
-9.12315e-15
5.81777e-15
2.41615e-14
9.08724e-15
-7.2589e-17
8.11115e-15
-9.04178e-16
1.22902e-14
1.28002e-14
8.02073e-16
1.43523e-14
1.03509e-14
-6.85477e-15
2.95531e-15
-1.41084e-14
-2.53624e-14
-2.72029e-14
-3.33823e-14
-1.86113e-14
-1.29691e-14
1.17381e-14
-2.20953e-14
-2.62506e-14
-1.18616e-14
-2.11424e-14
2.31434e-15
6.02789e-16
3.8261e-14
-3.48757e-15
1.35751e-14
-5.87388e-14
3.48924e-14
7.68271e-15
-1.30601e-14
3.2625e-15
-1.67645e-14
6.90558e-15
-5.61029e-15
-5.86994e-15
-1.64523e-14
-2.1662e-14
1.40824e-14
5.85826e-15
-2.44933e-15
1.36467e-14
-1.01312e-14
-1.49882e-14
3.71239e-15
3.00417e-14
1.45371e-14
1.34929e-14
-6.36524e-15
5.21718e-15
1.29974e-14
2.65645e-14
1.0377e-14
1.37737e-15
1.49745e-14
2.77838e-14
8.48333e-15
-7.24697e-15
5.87266e-15
2.20121e-14
4.90796e-15
-8.28259e-15
7.72081e-15
8.8535e-15
1.29675e-14
1.57789e-14
-1.66878e-15
1.52858e-14
1.34737e-14
1.16008e-15
1.1444e-15
5.37657e-15
-2.9718e-14
-2.77618e-14
-3.56855e-14
-7.6048e-15
-1.62657e-14
-1.94494e-15
-1.21789e-14
-3.33547e-14
-2.21629e-14
-2.08982e-14
-8.42476e-15
2.40334e-15
1.38235e-14
-1.07215e-14
4.34023e-15
2.9922e-15
-3.68775e-15
9.06516e-15
-2.29469e-14
-3.24588e-15
-1.506e-14
1.12767e-15
-9.89082e-15
-4.12011e-15
-2.46633e-14
-6.17658e-15
5.61527e-15
1.21658e-14
-2.49979e-15
1.29578e-14
-1.17064e-14
-9.77418e-15
3.809e-15
2.71408e-14
3.28792e-15
1.68555e-14
-4.8947e-15
1.11579e-14
2.05686e-14
2.46297e-14
6.15055e-15
3.01981e-15
8.71567e-15
2.50461e-14
1.02139e-14
5.90668e-15
-7.5411e-16
7.21052e-15
7.05948e-15
-2.13509e-15
3.27071e-15
1.63391e-14
1.24212e-14
1.59158e-14
-1.79669e-15
1.08601e-14
2.52256e-14
1.04274e-14
1.27492e-14
4.36937e-15
-2.61274e-14
-3.01258e-14
-1.89279e-14
-1.08102e-14
-2.63891e-14
-9.84894e-15
-1.24165e-14
-2.95831e-14
-2.40401e-14
-7.07099e-15
-1.52787e-14
-1.15229e-14
-1.51935e-15
1.79123e-14
1.62744e-14
-6.29681e-15
-1.26234e-14
-2.43913e-14
-1.64237e-15
-5.95625e-15
-1.25453e-14
9.36328e-15
-4.12616e-15
6.27647e-15
-2.31176e-14
-1.41362e-14
-1.82694e-15
1.29545e-14
-6.74527e-15
7.89771e-15
-4.12813e-16
-2.22567e-15
9.17347e-16
1.69555e-14
1.3053e-14
2.00973e-14
-1.09801e-14
5.73575e-15
1.79856e-14
4.14575e-14
7.23425e-15
1.2568e-15
1.24248e-14
2.58632e-14
8.65934e-15
9.60021e-15
-6.19426e-15
-2.13853e-15
5.27142e-15
2.57328e-15
3.46128e-15
1.7648e-14
1.46524e-14
2.09022e-14
1.05659e-15
9.38954e-15
2.1809e-14
7.14136e-15
-3.19561e-16
5.65348e-15
-2.30159e-14
-2.44361e-14
-1.17333e-14
-1.45782e-14
-3.30248e-14
-1.28685e-14
-1.70152e-14
-2.55036e-14
-2.48427e-14
-1.3627e-14
8.96958e-15
2.46748e-15
-3.74509e-15
2.43037e-14
1.69382e-14
-8.34078e-15
-1.06172e-14
-1.44388e-14
6.04261e-15
-1.46926e-14
-9.96406e-15
-4.89145e-15
1.20629e-14
1.65477e-14
-1.33458e-14
-1.63833e-14
-8.74989e-15
3.16427e-15
1.26211e-14
-1.45004e-15
-6.22378e-15
1.33288e-14
-4.38225e-16
1.00705e-15
1.20835e-14
1.88478e-14
5.3755e-15
4.4268e-15
1.88714e-14
3.03603e-14
-5.433e-15
4.09168e-15
1.40898e-14
2.73681e-14
1.07499e-14
4.1073e-15
-1.2933e-14
2.8655e-15
-8.31214e-17
4.09974e-16
1.09648e-14
2.22395e-14
1.3966e-14
1.93725e-14
8.56973e-15
6.45355e-15
1.25214e-14
8.94666e-15
-1.61417e-14
-5.42189e-15
-1.56184e-14
-2.30226e-14
-7.90974e-15
-2.5493e-14
-3.18386e-14
-2.89987e-14
-8.7627e-15
-1.0013e-14
-1.58543e-14
-1.37682e-14
1.90828e-14
-1.2684e-14
3.39226e-15
2.90544e-14
2.44972e-14
-6.20989e-15
-1.38137e-14
-1.85886e-14
1.18484e-14
-2.65147e-14
-5.9165e-15
3.71513e-15
1.53359e-14
8.74458e-15
-1.79829e-14
-1.30674e-14
-1.13153e-14
-2.10134e-15
1.39674e-14
-1.0139e-14
-6.95794e-15
2.65714e-14
-8.32261e-16
-1.70078e-14
7.33148e-15
1.39071e-14
4.68502e-15
1.73788e-14
1.93892e-14
2.77257e-14
-2.73998e-15
2.78565e-15
1.37904e-14
1.57782e-14
8.99784e-15
5.44692e-15
-7.68352e-15
2.28328e-15
2.40529e-15
-2.92772e-15
5.99407e-15
2.12043e-14
2.30295e-14
1.64524e-14
7.39321e-15
1.06588e-14
1.17715e-14
6.57192e-15
-1.26598e-14
-3.13018e-15
-1.00026e-14
-2.22192e-14
-7.91639e-15
-1.94468e-14
-3.46338e-14
-3.25646e-14
-2.42963e-14
1.10554e-14
-2.05301e-14
-1.7196e-14
2.29684e-14
-1.2421e-14
-7.58679e-16
3.11505e-14
3.36767e-14
1.97825e-15
-2.85854e-14
-1.06367e-14
5.02559e-16
-3.31968e-14
1.06321e-16
1.76057e-14
5.89951e-15
1.64417e-14
-1.87007e-14
-1.34113e-14
-6.3698e-15
-5.25879e-15
1.51956e-14
-2.39621e-14
-1.44501e-14
3.76068e-14
3.20141e-15
-2.07299e-14
9.72172e-15
1.35675e-14
3.24604e-15
2.25055e-14
2.41858e-14
2.37319e-14
-2.26716e-16
9.70868e-16
1.21593e-14
1.28163e-14
9.08483e-15
1.04642e-15
-7.15596e-15
6.94487e-15
3.19694e-15
-9.50618e-15
9.85136e-16
1.74848e-14
3.32164e-14
1.95793e-14
8.08787e-15
1.28625e-14
1.18815e-14
8.29463e-15
-1.03659e-14
-8.0847e-15
-3.27589e-15
-2.76927e-14
-1.46333e-14
-1.18483e-14
-3.05421e-14
-3.79324e-14
-3.3279e-14
6.53122e-15
-4.82429e-15
-4.15918e-15
4.16463e-15
7.23003e-15
-8.11974e-15
2.18677e-14
3.14859e-14
-5.52527e-15
-1.1888e-14
-1.23904e-14
-4.46461e-15
-3.17389e-14
1.56771e-15
3.28863e-14
-3.39642e-15
3.6614e-15
-1.24033e-14
-9.27917e-15
-3.39322e-15
1.34224e-16
2.09368e-14
-3.00446e-14
-1.69614e-14
5.42499e-14
-6.31251e-15
-4.51496e-14
5.17699e-15
2.20339e-14
1.01293e-14
3.04685e-14
1.6026e-14
1.2562e-14
1.63351e-15
6.1715e-15
1.04131e-14
1.14757e-14
8.51544e-15
7.77327e-16
8.59633e-16
1.65798e-15
4.67424e-16
-7.53813e-15
-8.95413e-16
1.85288e-14
2.8198e-14
2.62254e-14
1.04693e-14
1.05548e-14
9.28698e-15
3.35291e-15
1.05323e-14
-1.63705e-14
-1.69507e-14
3.053e-16
2.29365e-15
-3.12029e-14
-1.12564e-14
-1.80803e-14
-3.02787e-14
-2.69559e-14
-2.54602e-14
-1.73562e-14
-4.22631e-15
-3.8249e-16
-1.66752e-14
-5.94035e-15
-1.2525e-14
1.96107e-14
2.2269e-14
1.09466e-14
-9.82097e-15
6.65831e-15
-1.05523e-14
1.42152e-14
2.41916e-14
7.11676e-15
-8.61456e-16
4.14414e-15
-2.86539e-15
-7.75799e-15
6.13318e-15
8.41623e-15
2.94615e-14
8.45208e-15
1.72982e-14
1.62417e-14
-4.18433e-15
-9.14177e-15
-2.52555e-15
2.60976e-15
2.01051e-14
4.96307e-15
-7.43505e-15
1.78411e-15
1.87451e-14
1.40947e-14
2.21353e-14
3.22241e-14
6.6445e-15
6.31561e-15
1.2365e-14
3.47602e-15
-9.45293e-15
1.19227e-14
2.03627e-14
4.92844e-15
1.54893e-15
1.01484e-14
4.32654e-15
8.04621e-15
-1.71545e-15
-9.88966e-15
-1.42374e-14
1.90314e-15
-1.05272e-16
-2.89598e-14
-1.49258e-14
-1.77409e-14
-3.51124e-14
-2.80466e-14
-2.53012e-14
-1.59679e-14
-1.3107e-14
2.26997e-15
-1.65025e-14
2.21419e-15
-1.05175e-14
1.66723e-14
2.24697e-14
1.32584e-14
-8.5927e-15
1.20891e-14
-6.78977e-15
1.27032e-14
2.35292e-14
-1.71827e-15
-3.08309e-15
-1.03655e-15
-3.3841e-15
-5.47006e-15
8.52394e-15
1.95874e-14
2.61469e-14
1.24189e-14
1.77226e-14
1.37749e-14
-3.35626e-15
1.29656e-15
-4.05973e-15
-3.03328e-15
1.98531e-14
6.38595e-15
-6.84986e-15
3.55395e-15
1.89452e-14
1.20779e-14
2.03952e-14
3.70387e-14
8.03531e-15
3.11254e-15
1.3306e-14
6.25511e-15
-1.18407e-14
1.44228e-14
1.18103e-14
5.58817e-15
5.01272e-15
9.25111e-15
1.0216e-15
5.09992e-15
-1.05814e-14
-5.9567e-15
-1.93353e-14
-3.37273e-15
9.8275e-15
-2.40763e-14
-2.26347e-14
-1.64791e-14
-3.34396e-14
-2.45861e-14
-1.92365e-14
-1.9581e-14
-2.51703e-14
2.50582e-15
-9.62601e-15
-3.78122e-15
-7.88869e-15
1.35476e-14
2.63227e-14
1.57318e-14
-5.60808e-15
7.06551e-15
-9.33718e-16
4.54961e-15
1.96402e-14
4.11648e-15
6.91799e-16
-8.01279e-15
-3.96268e-15
1.79277e-15
7.79039e-15
2.51088e-14
1.41293e-14
1.6024e-14
1.13597e-14
1.40781e-14
-1.47552e-14
1.1961e-14
1.60106e-15
-1.09076e-15
1.96459e-14
7.77124e-15
-3.94407e-15
7.87683e-15
1.50171e-14
1.78897e-14
2.14037e-14
2.80098e-14
9.41911e-15
5.24895e-15
1.44328e-14
7.4104e-15
-1.19063e-14
7.07634e-15
7.31382e-15
9.33383e-15
9.07803e-15
8.82929e-15
2.08297e-15
3.45274e-16
-6.96696e-15
-2.86954e-15
-2.80718e-14
-1.83503e-16
1.0489e-14
-2.16733e-14
-2.20143e-14
-2.52898e-14
-2.28694e-14
-1.76651e-14
-2.53997e-14
-2.14674e-14
-3.38158e-14
5.9772e-15
-6.59429e-15
-3.25515e-15
-8.14107e-15
6.60642e-15
2.98977e-14
1.18044e-14
-4.2881e-16
2.23024e-15
-7.89565e-15
4.40796e-15
1.84115e-14
2.92304e-15
-6.68726e-15
-3.28596e-16
5.19964e-15
1.00052e-15
1.34261e-14
2.8383e-14
3.13516e-15
7.62385e-15
1.06458e-14
3.38326e-15
-1.35304e-14
1.64029e-14
7.05242e-15
1.38548e-15
1.58566e-14
1.09441e-14
-4.36299e-15
9.73014e-15
1.777e-14
1.82502e-14
2.25379e-14
2.32235e-14
1.56755e-14
3.53601e-15
5.5511e-15
7.32232e-15
-4.13985e-15
-7.56869e-16
9.56214e-15
1.11922e-14
1.06261e-14
1.18686e-14
3.3058e-15
-5.99971e-16
4.33949e-16
9.05194e-16
-3.19416e-14
-7.43864e-15
-9.70476e-16
-1.76282e-14
-2.50871e-14
-1.8996e-14
-1.97403e-14
-1.19816e-14
-2.04077e-14
-2.69503e-14
-3.44466e-14
-8.63265e-15
3.09909e-16
-8.62436e-15
-1.52339e-15
8.68884e-15
6.57912e-15
1.10809e-14
8.99913e-16
2.8565e-15
1.76614e-15
2.68218e-15
1.69969e-14
-6.85844e-15
-4.61158e-15
7.29983e-15
5.30578e-15
-5.42237e-15
1.40952e-14
2.86481e-14
6.3788e-16
6.03638e-15
4.964e-15
-6.48408e-15
-8.48521e-15
2.01378e-14
6.13382e-15
1.09763e-14
7.15596e-15
1.1339e-14
-8.33471e-17
1.17576e-14
1.81324e-14
1.61396e-14
1.85358e-14
1.65649e-14
1.77308e-14
1.11355e-14
5.6052e-15
6.87284e-15
-2.01887e-15
-2.17166e-15
7.0862e-15
3.81363e-15
1.45614e-14
1.27566e-14
4.30044e-15
1.40869e-15
1.06986e-14
-8.09999e-15
-3.14086e-14
-7.48815e-15
-9.39466e-15
-1.78481e-14
-2.39199e-14
-1.27606e-14
-1.89349e-14
-1.19185e-14
-2.57778e-14
-1.84871e-14
-3.03852e-14
-2.86334e-14
3.42943e-15
-1.21686e-14
-4.62671e-15
-8.97888e-15
1.90997e-14
-4.48372e-15
1.35706e-14
-1.51687e-15
1.70815e-14
2.75029e-15
2.6721e-15
-2.95718e-15
-8.47985e-15
1.54145e-14
3.15201e-15
-8.2704e-15
1.58943e-14
2.69855e-14
1.28899e-15
-4.47976e-15
1.83619e-15
-4.09481e-15
4.60635e-15
9.23342e-15
5.81897e-15
6.26569e-15
4.79348e-15
1.6388e-14
1.57397e-15
1.40644e-14
1.58273e-14
1.24987e-14
1.7711e-14
1.94041e-14
1.53237e-14
1.40821e-14
4.55228e-15
4.0643e-15
2.5826e-15
-4.70634e-16
2.37868e-15
3.44989e-15
1.33877e-14
9.71512e-15
6.27162e-15
4.53843e-15
7.25419e-15
-1.53352e-14
-2.33796e-14
-2.1178e-14
-5.59238e-15
-1.69347e-14
-1.40011e-14
-8.86179e-15
-3.12032e-14
-1.45066e-14
-1.62205e-14
-1.62352e-14
-1.54944e-14
-4.25933e-14
1.25683e-14
1.52772e-14
-4.83798e-15
-2.28403e-14
9.52036e-15
-2.76632e-14
2.34393e-14
-6.04568e-15
1.24042e-14
7.55014e-15
1.25376e-14
-1.65941e-15
-1.64928e-14
8.44015e-15
1.70271e-14
-5.38817e-16
9.11205e-15
1.76079e-14
2.13346e-15
-6.47534e-15
-2.67037e-15
-3.91063e-15
5.10797e-15
6.58744e-15
1.54723e-14
1.15824e-14
2.31071e-15
1.97192e-14
8.21853e-15
1.58329e-14
1.30816e-14
1.02414e-14
1.52652e-14
2.09781e-14
1.06902e-14
1.64961e-14
5.84557e-15
6.33026e-15
1.09143e-14
-3.4983e-15
3.61864e-16
2.69008e-15
9.53898e-15
7.54966e-15
1.24692e-14
6.1144e-15
-1.37761e-14
-1.28419e-14
-1.28202e-14
-2.12018e-14
-1.60784e-14
-1.87433e-14
-1.71789e-14
-9.7136e-15
-1.84868e-14
-1.61037e-14
-2.63038e-14
-5.41162e-15
-1.84385e-14
-3.25454e-14
1.07723e-14
8.73437e-15
1.08135e-14
-7.05096e-15
-4.44043e-15
-5.51284e-15
-2.16072e-14
-2.18418e-15
4.76185e-15
8.78215e-15
1.00058e-14
-4.20165e-15
-1.63705e-14
-1.55036e-15
2.86043e-14
5.49976e-16
6.8717e-15
1.34886e-14
-2.16012e-15
-6.72764e-15
-3.17062e-15
2.71936e-15
1.49795e-14
9.30212e-15
9.89765e-15
1.38049e-14
9.40656e-15
2.11067e-14
1.01882e-14
4.67147e-15
1.91736e-14
1.25699e-14
2.30494e-14
1.14394e-14
4.44724e-15
1.58424e-14
5.36124e-15
7.94685e-15
9.89762e-15
1.62924e-15
3.11425e-15
1.45763e-15
8.85073e-15
8.56448e-15
9.04615e-15
8.16963e-15
-1.98843e-14
-1.0492e-14
-8.82774e-15
-1.76664e-14
-2.58338e-14
-3.57675e-14
-2.55623e-14
3.77356e-15
-1.15431e-14
-1.77068e-14
-3.55666e-14
1.79378e-15
-1.7092e-14
-2.92605e-14
4.07862e-15
-2.26325e-14
4.36903e-15
6.13451e-15
2.08283e-15
-4.03044e-16
-2.97537e-15
2.01931e-16
-5.39928e-15
7.34282e-15
5.78054e-15
-1.25271e-14
-1.0589e-14
1.22042e-15
1.49797e-14
4.02354e-15
-8.52731e-18
4.43596e-15
6.18319e-15
-6.43138e-15
-5.06573e-15
-1.45889e-16
1.56305e-14
8.86777e-15
1.53959e-14
5.67609e-15
1.24421e-14
2.38163e-14
8.20592e-15
2.67373e-15
1.89481e-14
2.19136e-14
3.03202e-14
1.28078e-14
-5.20846e-15
7.65679e-15
-1.38028e-15
9.27872e-15
1.81164e-14
8.33237e-15
2.73369e-15
2.75846e-15
1.10167e-14
1.15085e-14
4.55746e-16
2.41793e-15
-9.75099e-15
-1.65246e-14
-1.15951e-14
-1.95845e-14
-2.81484e-14
-3.97164e-14
-1.86684e-14
5.30028e-15
-1.80432e-14
-2.05497e-14
-2.34982e-14
-3.28958e-15
8.18555e-16
-3.53503e-14
3.35822e-14
1.50764e-14
2.65185e-14
-5.7231e-15
3.27399e-14
1.01505e-14
3.40636e-16
6.80759e-16
-5.90944e-15
-3.08587e-15
1.84465e-15
-1.03271e-14
1.6886e-15
-4.55752e-15
1.33713e-14
-2.43816e-15
-8.40128e-15
1.09762e-14
3.63391e-15
-1.61202e-14
-1.56283e-17
9.24518e-15
2.39763e-14
8.38623e-15
8.53804e-15
-7.63932e-15
1.27301e-14
3.03159e-14
2.08675e-14
-8.54192e-16
2.15711e-14
2.40155e-14
2.42761e-14
4.96634e-16
5.66864e-16
1.305e-14
6.76084e-16
9.42047e-15
1.75641e-14
7.0672e-15
1.96946e-15
4.65891e-15
1.16967e-14
7.92614e-15
1.75681e-16
-2.65249e-15
-1.66264e-14
-1.17044e-14
-1.93e-14
-2.5516e-14
-3.19451e-14
-3.44357e-14
-1.32772e-14
8.81213e-15
-2.01957e-14
-1.81502e-14
-1.91564e-14
-1.29376e-14
4.18296e-15
-5.53087e-15
3.29145e-14
-4.86441e-15
6.38867e-15
1.07107e-16
2.90825e-14
-2.28593e-15
-1.66263e-14
1.41327e-15
-8.5134e-15
1.35223e-15
-5.09414e-15
-1.24624e-14
2.68257e-15
-8.22021e-15
4.30909e-15
3.2921e-15
-9.8434e-15
1.58814e-14
-3.08296e-15
-1.6728e-14
7.57069e-15
2.99405e-14
1.46546e-14
1.03216e-14
-4.52906e-15
-4.57696e-15
2.00101e-14
2.44678e-14
1.83615e-14
5.54199e-15
1.3347e-14
2.64281e-14
1.76398e-14
-5.83018e-15
6.73356e-15
1.60706e-14
1.69395e-15
1.42136e-15
1.26972e-14
1.06523e-14
6.02613e-15
9.85356e-15
2.97633e-15
1.01444e-14
6.26531e-15
-3.15734e-15
-1.19754e-14
-8.5102e-15
-2.25191e-14
-2.56843e-14
-3.4228e-14
-2.08901e-14
-2.03584e-14
1.23529e-14
-1.97929e-14
-1.92284e-14
-1.41451e-14
-1.97211e-14
1.40194e-15
-7.34327e-15
1.60705e-14
-1.23396e-14
3.04148e-14
-1.86034e-14
1.08856e-14
-1.5713e-15
2.39366e-14
-1.34368e-15
-1.53226e-14
5.30737e-15
-9.24805e-15
-9.88424e-15
-7.40021e-15
-5.21777e-15
1.18145e-15
7.53849e-15
-2.19209e-15
8.98729e-15
-6.90101e-15
-7.73582e-15
6.10031e-15
3.45978e-14
9.0012e-15
5.22476e-15
-1.89735e-16
4.45787e-16
1.57159e-14
2.66224e-14
1.08283e-14
7.26647e-15
1.01773e-14
2.51824e-14
9.99263e-15
-1.43517e-15
2.81278e-15
1.3231e-14
6.25145e-15
-4.22323e-15
1.24207e-14
1.02923e-14
1.37695e-14
1.05233e-14
1.57382e-15
1.30717e-14
5.84065e-15
8.08315e-17
-1.23209e-15
2.82915e-15
-2.6671e-14
-2.51059e-14
-3.09789e-14
-1.34326e-14
-1.80841e-14
-4.49353e-15
-1.31626e-14
-2.80174e-14
-1.72757e-14
-1.80059e-14
-8.32578e-15
9.29269e-15
3.61386e-14
-4.52836e-15
2.01878e-14
-2.05278e-14
7.64447e-15
-7.63582e-15
-4.6646e-15
-2.75146e-16
-1.92342e-14
6.98341e-15
-1.03938e-14
-7.20556e-15
-1.17857e-14
-1.05574e-15
4.35509e-15
3.99756e-15
3.17516e-15
1.17336e-14
-1.29385e-14
-2.29901e-15
4.72281e-15
2.21364e-14
7.47111e-15
8.2921e-15
-4.64242e-15
5.85035e-15
1.9402e-14
2.68921e-14
9.32489e-15
3.81794e-15
9.21167e-15
2.39002e-14
1.0096e-14
6.81691e-15
-1.53735e-15
1.05651e-14
4.43648e-15
-2.70592e-15
8.54256e-15
7.85874e-15
1.59783e-14
1.43129e-14
7.79148e-16
1.5171e-14
1.56441e-14
5.24767e-15
9.67009e-16
5.08726e-15
-2.28731e-14
-2.93059e-14
-2.30217e-14
-1.23368e-14
-1.80562e-14
-1.43395e-14
-4.60546e-15
-2.33645e-14
-3.04647e-14
-7.99134e-15
-9.99781e-15
4.47477e-15
-9.64873e-15
3.49859e-15
1.17817e-14
6.58752e-15
-4.55409e-15
-1.70846e-14
-3.41496e-15
-7.93387e-15
-9.85166e-15
7.94643e-15
-7.05173e-15
1.76038e-15
-1.68204e-14
-1.07276e-14
4.98705e-16
7.6405e-15
2.89837e-16
1.18669e-14
-9.45344e-15
-2.2649e-15
2.69454e-15
1.55011e-14
9.72052e-15
1.46424e-14
-9.59688e-15
9.07643e-15
2.30828e-14
2.82427e-14
4.13961e-15
5.16515e-15
8.13e-15
2.15486e-14
1.34689e-14
8.43998e-15
-1.88063e-15
4.62968e-15
-6.28388e-15
5.0547e-15
6.01077e-15
1.7668e-14
1.47458e-14
1.84447e-14
3.5861e-15
1.0696e-14
1.47283e-14
1.05344e-14
-7.10069e-15
2.85806e-15
-1.65306e-14
-2.8381e-14
-1.97246e-14
-1.30608e-14
-2.13888e-14
-1.88053e-14
-1.25457e-14
-1.83371e-14
-2.80153e-14
-5.73807e-15
4.4727e-15
6.79022e-15
-2.63822e-15
1.06948e-14
1.2487e-14
7.3109e-16
-5.16553e-15
-1.16141e-14
1.09408e-14
-1.48594e-14
-1.49144e-14
6.18122e-16
2.18738e-15
1.09025e-14
-1.317e-14
-6.63733e-15
-1.25394e-14
2.57983e-15
8.01366e-15
4.33587e-15
-9.93907e-15
9.8593e-15
4.46355e-15
-5.17165e-16
1.12909e-14
1.76371e-14
2.88026e-16
7.55461e-15
1.83608e-14
3.0187e-14
-3.54844e-15
7.38559e-15
1.03654e-14
2.28683e-14
6.14974e-15
7.51979e-15
-5.33697e-15
1.7283e-15
-6.05643e-15
4.79757e-16
5.51206e-15
2.96791e-14
1.93468e-14
1.55463e-14
4.25939e-15
6.70315e-15
1.15569e-14
1.1364e-14
-1.60707e-14
-5.01818e-15
-9.89353e-15
-3.07866e-14
-1.48521e-14
-1.98704e-14
-3.02682e-14
-1.91121e-14
-8.34661e-15
-5.29974e-15
-1.33775e-14
-1.46975e-14
1.49027e-14
-7.51717e-15
3.85064e-15
1.85147e-14
2.13942e-14
4.22049e-15
-1.00807e-14
-1.11369e-14
3.54313e-15
-2.18363e-14
-8.63249e-15
1.6256e-15
6.51037e-15
1.20381e-14
-1.80624e-14
-7.12099e-15
-7.6044e-15
-1.18234e-15
9.43007e-15
-1.39159e-14
-1.75655e-15
1.53505e-14
8.05788e-15
-5.09234e-15
1.5521e-15
1.05105e-14
8.11946e-15
1.48941e-14
1.85726e-14
2.5807e-14
-4.17424e-16
2.32e-15
1.04431e-14
1.79676e-14
8.05666e-15
3.71273e-15
-2.47164e-15
-1.85406e-15
-1.10288e-15
4.85848e-15
1.92658e-16
2.57832e-14
2.31982e-14
1.19732e-14
9.80104e-15
1.20811e-14
6.90263e-15
4.56725e-15
-1.17013e-14
-6.83717e-15
-1.24205e-14
-2.9978e-14
-1.36751e-14
-1.37904e-14
-3.22003e-14
-1.8388e-14
-2.08367e-14
2.69662e-15
-1.4444e-14
-1.41792e-14
1.05674e-14
-4.25217e-15
-1.41714e-15
2.72936e-14
2.88364e-14
-3.5925e-15
-1.72723e-14
-8.07278e-15
-2.96827e-15
-3.15622e-14
-1.35805e-15
1.48903e-14
1.11129e-15
1.23262e-14
-1.98207e-14
-1.62417e-15
-2.99234e-15
-6.19967e-15
1.26446e-14
-2.21429e-14
2.71189e-15
1.955e-14
-1.25017e-15
-1.27101e-14
5.41551e-15
6.96841e-15
9.16256e-15
2.29871e-14
2.2076e-14
2.35241e-14
-3.23557e-15
1.58332e-15
8.74638e-15
1.24911e-14
9.82055e-15
7.43517e-15
-1.6388e-15
5.20122e-15
-2.31234e-15
-7.84549e-15
-1.59269e-15
2.38315e-14
2.43554e-14
1.71173e-14
1.288e-14
1.40459e-14
8.8043e-15
4.5646e-15
-1.90927e-14
-4.32187e-15
-1.41559e-14
-2.77292e-14
-1.43948e-14
-6.6446e-15
-3.18374e-14
-2.65619e-14
-1.86274e-14
-2.51125e-15
-1.64495e-14
4.27776e-16
7.81298e-15
-5.98689e-15
1.74858e-15
2.62636e-14
2.51771e-14
-8.52774e-15
-3.37951e-15
-2.14499e-14
-4.97021e-15
-3.16956e-14
4.39971e-15
2.376e-14
-5.37519e-15
3.97741e-15
-1.95021e-14
-3.21368e-15
4.49865e-15
-2.60094e-16
9.05166e-15
-2.14151e-14
8.91056e-16
3.44724e-14
-1.45871e-14
-2.71321e-14
7.73314e-15
1.3106e-14
1.17894e-14
2.48364e-14
1.6063e-14
1.53504e-14
1.10075e-15
9.72411e-15
9.79255e-15
1.12313e-14
8.863e-15
-5.42071e-16
5.53009e-15
-2.72323e-15
-6.42049e-16
-7.64048e-15
-3.86396e-15
2.08837e-14
2.6766e-14
3.34281e-14
1.00508e-14
9.13657e-15
8.22881e-15
-5.63398e-16
6.4504e-15
-1.85947e-14
-1.85865e-14
-3.47249e-15
2.50323e-15
-2.73538e-14
-1.74122e-14
-1.60323e-14
-3.34811e-14
-3.14556e-14
-1.25898e-14
-2.01845e-14
-1.51797e-14
2.44662e-15
-8.13584e-15
-1.19436e-14
-2.38626e-14
1.75124e-14
2.65885e-14
1.96574e-14
-1.53135e-14
1.95044e-15
-3.21265e-15
1.58559e-14
1.25795e-14
1.16231e-14
9.23573e-15
-5.92962e-15
-1.42186e-15
2.79056e-15
2.7069e-15
5.96877e-15
2.20643e-14
1.30362e-14
1.05697e-14
1.28528e-14
3.86235e-15
-6.68423e-15
-4.7648e-15
-3.07343e-16
2.10663e-14
-2.13284e-16
-6.31564e-15
6.02083e-15
1.89682e-14
1.06143e-14
1.88794e-14
3.2736e-14
1.18275e-14
6.75651e-15
1.40356e-14
5.30868e-15
-1.00666e-14
4.86881e-15
1.43132e-14
1.16887e-14
2.76007e-15
8.72874e-15
1.01973e-16
9.19517e-15
-1.02075e-14
-1.2513e-14
-1.9953e-14
-2.64124e-15
2.25998e-15
-2.32608e-14
-2.04749e-14
-1.17818e-14
-3.8608e-14
-2.57507e-14
-1.75672e-14
-1.79417e-14
-1.39855e-14
3.4198e-15
-8.59824e-15
-5.84898e-15
-1.37896e-14
1.11903e-14
2.69861e-14
1.37502e-14
-1.11704e-14
6.57669e-15
5.19895e-15
1.2326e-14
6.91943e-15
1.68217e-15
1.10273e-14
-2.79888e-15
-6.67297e-15
2.59959e-15
8.92292e-15
1.54611e-14
1.60415e-14
1.1362e-14
1.45619e-14
1.81599e-14
-1.57949e-15
-4.46193e-15
-7.98552e-15
2.46511e-15
2.52863e-14
7.6156e-15
-6.08363e-15
3.19683e-15
1.85172e-14
9.63944e-15
2.23341e-14
3.27079e-14
9.82099e-15
3.67443e-15
1.22492e-14
5.0254e-15
-1.20669e-14
8.24068e-15
1.41722e-14
1.05028e-14
5.29475e-15
5.78996e-15
-1.69483e-15
2.76358e-15
-1.31244e-14
-3.16136e-15
-2.4635e-14
-1.52135e-15
4.2806e-15
-2.20371e-14
-2.73977e-14
-8.36025e-15
-3.83637e-14
-2.83927e-14
-1.65327e-14
-1.65097e-14
-1.75915e-14
5.14449e-15
-1.16164e-14
-9.79087e-16
-1.38113e-14
1.47203e-14
2.05749e-14
1.41891e-14
-5.07794e-15
7.95231e-15
2.13814e-15
4.13759e-15
1.76791e-14
1.26588e-15
3.35564e-15
-2.24336e-15
-4.90515e-15
-1.26066e-15
1.61417e-14
2.09004e-14
9.80474e-15
1.85928e-14
1.40869e-14
1.51706e-14
-9.5251e-15
4.38239e-15
-3.06929e-15
2.23088e-15
1.65833e-14
1.51003e-14
-1.7678e-15
4.82431e-15
1.5165e-14
1.57691e-14
2.08122e-14
2.55372e-14
8.63461e-15
4.96804e-15
1.37361e-14
9.77747e-15
-1.28266e-14
2.7702e-15
1.17315e-14
9.26229e-15
1.04859e-14
8.57558e-15
-4.48652e-15
-1.73985e-15
-7.41697e-15
1.73682e-15
-3.16162e-14
4.38349e-16
4.80501e-15
-1.74897e-14
-2.87605e-14
-1.53657e-14
-2.62454e-14
-2.52851e-14
-1.84989e-14
-1.90813e-14
-2.33673e-14
6.97801e-15
-1.27193e-14
7.55549e-16
-6.73106e-15
9.23122e-15
2.49772e-14
1.0761e-14
-7.85419e-16
1.92036e-15
-6.53435e-15
3.61502e-15
2.31569e-14
2.49252e-15
-3.57287e-15
-4.3248e-15
3.72728e-15
-6.18915e-15
1.172e-14
2.55611e-14
1.06033e-14
8.68031e-15
7.23625e-15
5.29262e-15
-7.92856e-15
1.31354e-14
-3.87452e-15
3.55666e-15
2.04364e-14