/*--------------------------------*- C++ -*----------------------------------*\
  =========                 |
  \\      /  F ield         | OpenFOAM: The Open Source CFD Toolbox
   \\    /   O peration     | Website:  https://openfoam.org
    \\  /    A nd           | Version:  13
     \\/     M anipulation  |
\*---------------------------------------------------------------------------*/
FoamFile
{
    format      ascii;
    class       volVectorField;
    location    "2";
    object      U;
}
// * * * * * * * * * * * * * * * * * * * * * * * * * * * * * * * * * * * * * //

dimensions      [0 1 -1 0 0 0 0];

internalField   nonuniform List<vector> 
54636
(
(20 8.53482e-17 -2.71809e-16)
(20 3.4548e-19 1.57397e-16)
(20 -1.14718e-16 4.01051e-18)
(20 2.33141e-16 1.37629e-16)
(20 -4.12562e-17 1.77576e-16)
(20 -3.84566e-16 -2.55671e-16)
(20 -2.7741e-19 -4.10117e-16)
(20 8.2903e-17 2.10928e-16)
(20 3.24482e-16 8.84103e-17)
(20 8.60972e-17 -2.30382e-17)
(20 3.47645e-17 -9.19085e-17)
(20 1.17074e-17 -1.50412e-16)
(20 5.41967e-16 3.4304e-18)
(20 -2.30975e-17 -3.01717e-16)
(20 -3.25689e-16 -5.60116e-17)
(20 -5.60452e-17 2.74564e-16)
(20 -1.61311e-16 -8.39945e-17)
(20 1.31628e-16 1.44847e-16)
(20 4.52637e-17 2.33358e-16)
(20 -1.20319e-16 3.99958e-17)
(20 -3.10558e-16 2.81288e-16)
(20 5.21922e-17 5.34745e-17)
(20 -3.12099e-16 -3.35777e-16)
(20 -1.02677e-16 -3.05668e-16)
(20 2.53443e-16 3.51825e-16)
(20 3.42377e-16 1.81924e-16)
(20 1.54076e-16 -1.39072e-16)
(20 -2.39241e-17 -3.13778e-16)
(20 -7.10457e-17 1.11918e-16)
(20 1.02077e-16 2.10148e-16)
(20 -4.31101e-16 -1.19462e-16)
(20 -3.59839e-16 5.1407e-17)
(20 -2.85933e-16 -2.16881e-16)
(20 -1.48502e-16 -1.01856e-16)
(20 1.69034e-16 3.21464e-16)
(20 -8.43628e-17 -2.03093e-16)
(20 4.26963e-16 4.05195e-17)
(20 -5.09556e-16 7.2645e-17)
(20 1.1331e-16 -1.36648e-16)
(20 2.99217e-16 1.95526e-16)
(20 5.91796e-17 3.70686e-17)
(20 1.55778e-16 1.35283e-16)
(20 3.56334e-17 1.05636e-16)
(20 -2.18932e-16 -2.46699e-17)
(20 -1.78721e-16 -2.00832e-16)
(20 1.01856e-16 1.58782e-16)
(20 2.61376e-16 2.82958e-16)
(20 -6.15109e-17 -1.79963e-16)
(20 1.81523e-16 5.08373e-17)
(20 -2.61814e-17 1.24096e-16)
(20 -2.37862e-16 -2.27359e-16)
(20 -1.77898e-16 1.55255e-17)
(20 -5.0372e-17 1.47544e-16)
(20 7.87027e-17 7.50979e-17)
(20 4.66462e-16 1.08111e-16)
(20 -1.88362e-16 -3.07379e-16)
(20 -2.04412e-16 -2.75046e-16)
(20 4.95083e-17 2.22212e-17)
(20 7.90723e-17 2.05838e-16)
(20 2.77654e-16 1.83681e-16)
(20 1.03772e-16 3.63907e-17)
(20 -1.17545e-16 4.21977e-17)
(20 3.39319e-17 6.55536e-17)
(20 4.52799e-16 -7.77507e-17)
(20 -2.39268e-17 2.53621e-16)
(20 -4.5935e-16 -1.46111e-17)
(20 -1.81378e-16 -3.07689e-16)
(20 1.14847e-16 1.42251e-16)
(20 4.42887e-16 -1.90104e-17)
(20 -1.55662e-17 -2.62882e-17)
(20 -3.34188e-16 -1.06481e-16)
(20 1.16337e-16 -1.29402e-16)
(20 8.868e-16 -1.97113e-16)
(20 -2.87512e-16 -2.73457e-16)
(20 -5.03827e-16 1.51013e-16)
(20 8.34834e-17 5.5007e-17)
(20 -1.32234e-16 -2.55455e-17)
(20 1.90273e-16 6.13513e-17)
(20 1.44918e-16 1.77817e-16)
(20 -4.71836e-16 1.02311e-17)
(20 -1.53682e-16 4.29927e-16)
(20 1.64862e-16 -1.54488e-16)
(20 -6.11979e-16 -1.6518e-16)
(20 -1.07324e-16 -1.87506e-16)
(20 3.82499e-16 1.96976e-16)
(20 1.9424e-16 1.48406e-16)
(20 -4.1555e-17 -2.53549e-16)
(20 2.38577e-16 -3.86145e-17)
(20 -1.87035e-17 2.68399e-16)
(20 -4.55654e-17 7.05537e-18)
(20 -3.68704e-16 1.93555e-16)
(20 -5.08905e-16 3.21148e-17)
(20 1.53265e-16 3.64202e-17)
(20 4.95157e-17 -1.42715e-16)
(20 4.08196e-16 1.44436e-16)
(20 6.09462e-17 -1.95572e-17)
(20 5.55805e-16 -4.1369e-16)
(20 -7.03619e-16 2.9873e-16)
(20 -1.71627e-16 -2.37736e-16)
(20 1.37898e-16 1.26314e-17)
(20 9.03021e-17 4.62815e-17)
(20 6.58031e-17 -4.89654e-17)
(20 1.05952e-16 4.35851e-17)
(20 -3.22514e-16 1.21206e-16)
(20 -2.65694e-16 -5.23146e-17)
(20 9.26267e-17 9.90672e-17)
(20 2.70894e-16 1.00183e-16)
(20 -4.93174e-17 -1.72265e-16)
(20 8.21531e-17 -1.81175e-16)
(20 8.47401e-17 1.94629e-16)
(20 -1.9331e-16 -7.58635e-17)
(20 -1.46109e-16 4.53572e-17)
(20 5.68653e-17 2.44121e-16)
(20 2.47861e-16 -1.77878e-17)
(20 4.62641e-16 -1.22586e-16)
(20 -3.38167e-16 -1.01203e-16)
(20 -4.16298e-16 -1.1623e-16)
(20 1.11918e-16 3.80786e-17)
(20 1.25534e-16 2.0812e-16)
(20 3.85678e-16 -4.22659e-18)
(20 1.03982e-17 2.48822e-16)
(20 -3.77668e-17 8.66596e-17)
(20 4.90348e-16 6.70512e-17)
(20 1.96029e-16 -6.30976e-17)
(20 2.30101e-16 8.99306e-17)
(20 -7.07723e-17 -4.09224e-17)
(20 -5.6373e-16 5.23787e-17)
(20 3.08885e-16 1.2366e-16)
(20 1.69694e-19 -1.59004e-16)
(20 -4.09206e-16 1.504e-17)
(20 -2.77988e-16 8.90209e-17)
(20 -6.05371e-17 -1.66785e-16)
(20 5.61546e-16 -3.00296e-16)
(20 -4.44931e-16 5.64235e-17)
(20 -1.12303e-16 2.40433e-16)
(20 3.25553e-16 -3.17715e-19)
(20 -2.16806e-16 -1.09569e-16)
(20 1.90041e-16 8.28602e-17)
(20 1.15325e-16 1.98136e-17)
(20 -1.52613e-16 3.01465e-16)
(20 4.43343e-16 1.93911e-16)
(20 1.11631e-16 -1.7657e-16)
(20 -4.55478e-16 8.86435e-17)
(20 -1.23144e-17 3.76724e-17)
(20 3.21602e-16 7.21977e-17)
(20 1.2922e-16 9.38932e-17)
(20 -2.63741e-16 -2.16585e-16)
(20 -3.50089e-18 -1.00337e-16)
(20 -3.45322e-16 3.30579e-16)
(20 1.77221e-16 -5.15495e-17)
(20 -6.95033e-17 7.06424e-17)
(20 -1.97999e-16 7.04048e-17)
(20 5.15206e-16 -1.17866e-17)
(20 2.34499e-16 -2.63642e-16)
(20 4.37329e-16 5.99014e-17)
(20 4.23242e-16 -1.53277e-16)
(20 7.20465e-17 -3.50272e-16)
(20 -5.94736e-17 2.99628e-16)
(20 -5.3615e-16 -2.44827e-17)
(20 -1.99195e-16 7.3086e-17)
(20 7.71867e-18 -5.54161e-17)
(20 -1.39835e-16 -5.02507e-17)
(20 2.0472e-16 -1.18716e-16)
(20 -1.81106e-16 1.17901e-16)
(20 -3.95838e-16 9.68993e-17)
(20 4.91058e-17 -4.80594e-17)
(20 4.44953e-17 1.62879e-17)
(20 3.38607e-17 5.62241e-17)
(20 -1.6737e-16 -1.04246e-16)
(20 1.90626e-16 3.90964e-17)
(20 1.48171e-16 -1.20141e-16)
(20 3.33166e-17 -3.22979e-17)
(20 1.3041e-16 1.84446e-16)
(20 2.09053e-16 4.58837e-17)
(20 6.94853e-17 -3.09136e-17)
(20 -2.63085e-16 -5.57297e-17)
(20 -4.31246e-16 -1.54211e-17)
(20 -1.14646e-16 -6.01318e-17)
(20 1.59508e-16 1.12126e-16)
(20 8.83734e-17 1.19653e-18)
(20 -2.46513e-16 1.09096e-16)
(20 1.46898e-16 -1.46554e-16)
(20 4.2102e-16 -1.31014e-16)
(20 2.01979e-16 -1.55539e-16)
(20 3.2008e-16 -2.53506e-17)
(20 -2.50737e-17 -6.65303e-17)
(20 -3.28492e-16 3.57519e-16)
(20 1.1641e-16 7.73839e-17)
(20 -2.47168e-16 -2.60902e-16)
(20 -5.06372e-17 7.87661e-17)
(20 2.16676e-16 1.13624e-16)
(20 -1.29461e-16 9.29444e-17)
(20 2.87658e-16 -1.45059e-16)
(20 6.35062e-17 1.87131e-16)
(20 -6.22179e-17 1.18596e-17)
(20 2.7946e-16 -1.28459e-16)
(20 -5.07307e-16 1.00435e-16)
(20 1.0601e-16 1.39636e-16)
(20 4.40662e-16 -9.62096e-17)
(20 6.26787e-16 9.67853e-17)
(20 -1.29695e-16 -1.79699e-16)
(20 -1.45508e-16 3.0838e-17)
(20 -1.06368e-16 3.4124e-16)
(20 1.71255e-16 4.48973e-17)
(20 1.17992e-16 -1.71089e-17)
(20 4.6098e-16 -1.11299e-16)
(20 -1.86958e-17 1.39703e-16)
(20 -4.60744e-16 1.87834e-17)
(20 -2.50632e-16 4.46913e-16)
(20 1.87826e-16 -3.45143e-16)
(20 -6.40753e-17 5.17057e-17)
(20 -8.83338e-17 -1.85618e-16)
(20 3.3756e-16 1.00072e-16)
(20 3.10417e-16 2.18534e-17)
(20 7.01285e-16 3.65754e-17)
(20 5.00774e-16 -1.12218e-16)
(20 -2.27778e-16 -1.60276e-16)
(20 2.63159e-17 -3.08654e-17)
(20 -2.57407e-16 8.02421e-17)
(20 -4.55857e-16 5.38612e-17)
(20 1.6308e-16 4.02457e-17)
(20 -1.3623e-16 -2.93966e-17)
(20 6.81045e-17 -2.0221e-16)
(20 1.08919e-16 1.40678e-16)
(20 -1.4425e-16 2.86347e-16)
(20 2.56195e-17 -1.70259e-16)
(20 -5.75763e-17 -4.9953e-17)
(20 1.34354e-16 1.6991e-16)
(20 -2.85254e-16 -9.15078e-17)
(20 -4.69839e-17 -3.24759e-17)
(20 3.04529e-16 -5.47749e-17)
(20 2.61048e-17 1.2322e-17)
(20 -1.5495e-16 -2.8942e-17)
(20 6.75042e-17 1.80308e-16)
(20 2.18646e-16 -4.5749e-17)
(20 1.31217e-16 -3.36858e-17)
(20 -3.03153e-16 3.02825e-17)
(20 -1.61722e-16 3.00921e-17)
(20 4.16698e-18 -5.82546e-17)
(20 -2.65419e-16 5.26065e-17)
(20 -2.4828e-16 3.05196e-16)
(20 -6.14491e-17 -2.47602e-16)
(20 -9.28204e-17 -1.37172e-16)
(20 2.74435e-16 -1.73695e-16)
(20 1.24922e-16 9.10189e-17)
(20 3.70865e-17 -1.26786e-16)
(20 3.0062e-16 4.12729e-16)
(20 -3.58676e-16 7.56915e-17)
(20 -2.78703e-16 -3.23212e-16)
(20 -9.09713e-17 -3.23034e-16)
(20 1.34766e-16 -1.8581e-16)
(20 -8.72573e-17 1.84671e-16)
(20 4.54358e-17 -1.9274e-16)
(20 5.59976e-16 -1.80624e-16)
(20 -1.20029e-16 7.78929e-17)
(20 -8.97045e-17 -9.70407e-17)
(20 -1.33316e-16 2.71263e-17)
(20 3.53545e-16 -7.35212e-17)
(20 1.51313e-16 1.35822e-16)
(20 4.37483e-16 1.38383e-16)
(20 -1.72159e-16 1.39381e-16)
(20 -1.70009e-16 9.21187e-17)
(20 -1.24679e-16 3.78146e-17)
(20 1.38233e-16 -1.03264e-16)
(20 6.51043e-16 1.51468e-16)
(20 1.59814e-16 -7.49595e-17)
(20 2.19202e-16 -5.49254e-19)
(20 -5.62734e-16 7.52188e-17)
(20 7.76403e-17 2.30039e-16)
(20 -1.44188e-16 -1.75034e-16)
(20 1.1437e-16 2.36914e-17)
(20 -2.33504e-16 -2.46941e-17)
(20 2.64004e-16 1.92325e-17)
(20 4.99339e-16 -6.63089e-17)
(20 4.46254e-16 -3.57102e-16)
(20 2.61952e-16 -2.99929e-17)
(20 -5.4558e-16 -1.38974e-16)
(20 -7.29202e-17 2.09719e-17)
(20 2.90991e-16 4.19091e-17)
(20 -6.91202e-17 1.60009e-16)
(20 1.40272e-16 -7.00532e-18)
(20 -2.52058e-16 2.16388e-17)
(20 -2.11024e-16 -2.228e-16)
(20 8.64567e-17 -9.38292e-17)
(20 1.0275e-16 1.55641e-16)
(20 8.81383e-17 -1.03921e-16)
(20 5.72043e-17 1.01374e-16)
(20 1.08046e-16 1.78302e-16)
(20 -2.26995e-16 7.40764e-17)
(20 -2.5592e-16 -2.89486e-17)
(20 9.53724e-17 -1.9372e-16)
(20 3.12333e-16 4.84956e-17)
(20 -2.09788e-16 4.33473e-17)
(20 -1.10567e-16 1.53542e-16)
(20 2.58731e-16 -1.42621e-16)
(20 2.94184e-16 -1.16425e-16)
(20 -1.638e-16 -3.86203e-17)
(20 3.52464e-17 -1.51096e-17)
(20 7.10078e-17 3.81206e-17)
(20 -6.00529e-18 2.10175e-16)
(20 1.74224e-16 3.92947e-17)
(20 2.53225e-16 -2.06652e-17)
(20 -3.56436e-16 -3.02088e-18)
(20 1.21091e-16 -2.25291e-16)
(20 -1.20032e-17 3.56362e-16)
(20 -2.38219e-16 -1.55552e-16)
(20 5.67544e-16 4.27122e-17)
(20 9.43362e-17 8.43609e-17)
(20 -1.87138e-16 -1.46084e-16)
(20 -3.97044e-16 -6.44776e-17)
(20 -2.64966e-16 -2.54123e-17)
(20 -1.58083e-16 1.81377e-16)
(20 -2.25459e-16 9.35477e-17)
(20 1.78662e-16 -5.81608e-17)
(20 -1.60319e-16 -1.39949e-16)
(20 -1.05321e-16 9.34601e-17)
(20 -2.12445e-17 2.68558e-18)
(20 3.58639e-16 -1.55169e-16)
(20 -3.1646e-16 -7.21468e-17)
(20 3.94269e-16 1.68309e-16)
(20 -8.63088e-17 6.42323e-17)
(20 4.37538e-17 2.78358e-16)
(20 8.57773e-17 -1.9627e-16)
(20 -1.4633e-16 -1.72656e-16)
(20 4.67154e-16 -2.48704e-16)
(20 -1.13563e-16 3.54491e-17)
(20 2.52182e-16 -3.59013e-17)
(20 8.56688e-17 1.61901e-16)
(20 -3.04005e-16 3.38898e-16)
(20 -2.14323e-16 3.88358e-17)
(20 -9.23804e-17 -8.19286e-17)
(20 2.06197e-16 2.01025e-16)
(20 -6.42357e-17 -1.71276e-17)
(20 4.22526e-16 -1.49751e-16)
(20 1.76871e-16 -1.34214e-16)
(20 5.53141e-17 -1.3471e-16)
(20 -4.1877e-16 3.96251e-17)
(20 1.0382e-16 1.99782e-16)
(20 -2.54028e-17 -2.26378e-16)
(20 2.22596e-16 -2.23186e-17)
(20 -2.14611e-16 1.61725e-16)
(20 -3.93804e-16 1.50607e-16)
(20 -2.77527e-16 -1.3814e-16)
(20 -2.78984e-16 -1.38674e-16)
(20 8.6119e-17 2.37341e-16)
(20 2.06047e-16 -9.3574e-17)
(20 1.08994e-16 -1.79298e-17)
(20 8.47106e-17 8.14203e-17)
(20 1.55434e-16 2.16482e-16)
(20 -2.45315e-16 2.59173e-17)
(20 -5.10238e-17 -1.67666e-16)
(20 8.97442e-17 -2.03391e-16)
(20 -2.78493e-16 6.0891e-18)
(20 4.16017e-17 1.3803e-16)
(20 2.81079e-17 -1.56657e-16)
(20 -2.86712e-17 -1.05628e-16)
(20 1.05608e-16 1.09588e-16)
(20 1.27918e-16 2.16833e-17)
(20 -1.621e-16 -1.22347e-16)
(20 9.4202e-19 -3.5503e-17)
(20 5.65969e-16 5.25527e-17)
(20 1.11066e-16 -1.1517e-16)
(20 -5.30441e-16 8.54404e-17)
(20 -1.90768e-17 2.43844e-17)
(20 1.75088e-16 1.6486e-16)
(20 5.24687e-17 8.38382e-17)
(20 1.66135e-16 -3.87325e-16)
(20 1.80664e-16 -2.71783e-16)
(20 -8.73006e-17 5.34418e-17)
(20 -1.91703e-16 4.42845e-17)
(20 -1.96044e-16 -1.16383e-17)
(20 -2.40138e-16 8.90657e-17)
(20 -4.30239e-16 -1.43532e-16)
(20 -8.32566e-17 -1.23466e-16)
(20 1.1815e-16 3.5641e-17)
(20 -2.39999e-16 -2.22185e-17)
(20 7.61736e-17 1.39606e-16)
(20 -1.61705e-16 -6.94926e-17)
(20 3.04055e-16 8.20032e-17)
(20 -2.52713e-16 4.69597e-18)
(20 1.3914e-16 -1.81999e-17)
(20 3.28491e-16 2.27188e-16)
(20 3.27892e-16 -2.43307e-16)
(20 -1.51459e-16 -3.07278e-17)
(20 -3.26053e-16 -1.61942e-16)
(20 -7.00509e-17 -4.85272e-17)
(20 3.96602e-16 3.42919e-17)
(20 6.03765e-16 -2.34423e-17)
(20 -6.53647e-16 2.97465e-16)
(20 -1.2388e-16 -1.36069e-16)
(20 8.79191e-17 2.31956e-16)
(20 4.51195e-16 1.22695e-16)
(20 -1.02407e-17 1.78423e-16)
(20 7.19422e-17 -1.85247e-16)
(20 3.88942e-16 -3.11394e-16)
(20 -2.10002e-16 -6.6014e-17)
(20 -1.79643e-16 -1.46886e-17)
(20 6.94316e-17 2.60678e-16)
(20 -5.65588e-16 -5.17252e-17)
(20 -5.74432e-17 -1.44746e-16)
(20 -1.40239e-17 4.27082e-16)
(20 -1.64232e-16 2.20581e-16)
(20 -3.07714e-16 -2.93726e-16)
(20 -2.23864e-16 -1.53492e-17)
(20 2.52807e-17 1.70559e-16)
(20 1.52098e-16 -9.13113e-17)
(20 -2.77975e-16 7.20529e-17)
(20 2.50415e-16 -3.8772e-17)
(20 3.84416e-16 5.97149e-17)
(20 -1.30295e-17 1.37131e-16)
(20 -8.66676e-17 -1.9751e-16)
(20 -3.58189e-16 -8.43128e-17)
(20 -2.09683e-16 -2.70324e-17)
(20 1.51707e-16 1.67178e-17)
(20 -1.09145e-16 9.06831e-18)
(20 -9.04522e-17 -1.44995e-17)
(20 2.87214e-16 8.51895e-18)
(20 -4.2621e-17 -3.51472e-17)
(20 -2.21862e-16 3.54006e-17)
(20 -7.33448e-17 1.02551e-16)
(20 6.02535e-16 7.29477e-17)
(20 -9.90429e-17 2.10787e-16)
(20 -4.2651e-16 2.49793e-16)
(20 -2.12334e-16 5.75257e-17)
(20 2.53875e-16 1.43854e-16)
(20 6.63501e-16 -2.09748e-16)
(20 2.88494e-16 -2.04416e-16)
(20 -3.05318e-16 -1.47722e-16)
(20 -1.25491e-16 -1.13952e-16)
(20 -4.02016e-17 1.09268e-16)
(20 3.47489e-16 1.15526e-16)
(20 -4.66346e-16 6.77515e-17)
(20 -1.61944e-16 7.88693e-17)
(20 1.41889e-16 1.79623e-16)
(20 1.32602e-16 -5.24041e-17)
(20 1.8339e-16 4.58407e-17)
(20 2.52774e-16 1.76274e-16)
(20 -1.25274e-16 -1.25972e-16)
(20 -4.04625e-16 -1.03082e-16)
(20 -4.14375e-17 -1.65394e-16)
(20 2.68121e-16 1.82408e-16)
(20 9.49316e-17 -8.12461e-17)
(20 2.97695e-16 -2.33073e-16)
(20 7.9942e-17 2.04278e-18)
(20 -7.51751e-17 -4.33766e-18)
(20 1.2932e-16 1.37022e-16)
(20 1.87371e-17 -2.26809e-16)
(20 3.16399e-16 2.65463e-18)
(20 -2.11347e-17 4.2687e-16)
(20 -4.97636e-17 -9.19087e-17)
(20 5.75096e-16 1.34148e-16)
(20 4.83252e-16 1.15193e-16)
(20 -4.01466e-17 1.35775e-16)
(20 -2.30686e-16 -1.10834e-16)
(20 -2.48842e-17 -4.15876e-16)
(20 -2.34286e-16 -4.55201e-17)
(20 -2.9757e-16 -4.58796e-17)
(20 9.15141e-17 5.50777e-17)
(20 1.29562e-16 3.34943e-16)
(20 5.55402e-17 -2.15212e-16)
(20 -7.34054e-17 5.44996e-17)
(20 5.67175e-17 2.11791e-16)
(20 -7.703e-17 -1.71776e-16)
(20 3.18462e-17 1.65595e-16)
(20 -2.70812e-16 1.35243e-16)
(20 -2.06683e-16 -2.46146e-16)
(20 -3.38601e-16 1.10997e-16)
(20 -4.27247e-17 1.89482e-17)
(20 2.69181e-16 1.62801e-17)
(20 1.04908e-16 1.35519e-17)
(20 1.97685e-16 -4.1047e-17)
(20 -2.45616e-16 3.04399e-17)
(20 -2.18067e-16 -4.75151e-17)
(20 -2.97208e-16 -2.06612e-17)
(20 -1.0819e-16 -3.17649e-17)
(20 1.24834e-16 9.62757e-18)
(20 5.03257e-17 -5.13051e-17)
(20 -1.80131e-16 2.3185e-17)
(20 1.67695e-16 2.30817e-17)
(20 1.63177e-16 -1.12442e-17)
(20 -4.91104e-17 6.61385e-17)
(20 3.21681e-16 1.86001e-16)
(20 6.80959e-17 2.3576e-16)
(20 1.13681e-16 -9.18932e-18)
(20 3.15241e-16 2.30684e-16)
(20 2.71523e-16 -1.51601e-16)
(20 6.47672e-17 -2.14058e-16)
(20 -3.09409e-16 -8.90197e-17)
(20 -3.02027e-17 -2.66887e-16)
(20 1.80381e-16 2.68521e-17)
(20 1.57269e-16 8.93188e-17)
(20 1.26588e-16 2.62688e-16)
(20 -9.3009e-16 -9.21334e-18)
(20 -2.90366e-16 -9.46678e-17)
(20 -2.77056e-16 -1.02705e-16)
(20 -9.51051e-17 -5.02624e-17)
(20 -6.30373e-17 1.6576e-16)
(20 4.24938e-16 3.8459e-17)
(20 -1.1758e-16 -7.54474e-17)
(20 -3.25776e-16 6.63222e-17)
(20 -2.2537e-16 1.90725e-16)
(20 1.355e-17 -1.1804e-16)
(20 4.09631e-17 -9.09356e-17)
(20 1.69149e-16 2.59188e-17)
(20 1.81986e-16 4.51393e-17)
(20 4.44671e-16 2.45004e-16)
(20 -5.81077e-16 5.80242e-17)
(20 2.66593e-16 -2.68773e-16)
(20 5.99429e-16 2.93833e-16)
(20 8.68595e-17 -9.07248e-17)
(20 5.01028e-16 -2.66742e-17)
(20 6.69444e-17 5.30066e-17)
(20 2.33265e-16 1.5951e-16)
(20 1.54909e-16 5.51338e-17)
(20 -4.41536e-16 -2.17073e-16)
(20 -1.4967e-16 9.35716e-17)
(20 -4.36116e-16 3.96422e-17)
(20 1.47544e-16 5.26562e-19)
(20 3.32478e-16 -2.51386e-16)
(20 3.08643e-16 -2.74592e-17)
(20 -3.65972e-17 2.21739e-16)
(20 6.03168e-17 1.33283e-16)
(20 -1.72908e-16 -2.35686e-16)
(20 5.90999e-17 1.41283e-16)
(20 -7.24845e-17 2.60212e-16)
(20 -5.10969e-16 -2.49829e-16)
(20 -1.06808e-16 -4.49826e-17)
(20 1.36504e-16 7.07352e-17)
(20 5.8492e-17 7.24136e-17)
(20 -2.15311e-17 2.1081e-16)
(20 -1.06191e-16 -8.33279e-17)
(20 -1.1877e-16 1.63696e-16)
(20 -1.5074e-16 1.16608e-17)
(20 -1.16676e-16 -4.00175e-18)
(20 -1.69835e-16 -8.18427e-17)
(20 2.41008e-17 -1.48292e-16)
(20 7.9776e-17 -3.74002e-17)
(20 -1.06228e-16 -1.22672e-17)
(20 2.03966e-16 1.55078e-16)
(20 3.8181e-16 8.35665e-17)
(20 -2.08998e-16 4.88528e-17)
(20 1.69399e-16 2.36351e-17)
(20 5.20325e-16 1.48962e-16)
(20 2.19292e-16 -1.76775e-16)
(20 5.51581e-16 1.67619e-16)
(20 -2.12322e-16 7.74413e-17)
(20 -5.48471e-16 -1.67055e-16)
(20 -3.43971e-16 -1.33546e-16)
(20 -1.53541e-16 -6.18181e-17)
(20 1.58793e-16 1.401e-16)
(20 -2.89597e-16 -6.56325e-17)
(20 3.5811e-16 -1.13652e-16)
(20 -3.61203e-16 2.48681e-16)
(20 -4.65285e-16 1.35659e-16)
(20 -5.97782e-17 -1.12512e-16)
(20 1.39387e-16 7.64466e-17)
(20 7.87031e-17 -1.32888e-16)
(20 7.55235e-17 -1.16015e-16)
(20 -2.55234e-16 -1.0054e-17)
(20 1.97313e-16 -1.27367e-16)
(20 2.28299e-16 -1.62365e-17)
(20 -1.73083e-16 -2.63213e-16)
(20 -1.84207e-16 -6.4952e-17)
(20 1.63312e-16 1.00022e-16)
(20 4.15323e-16 1.09935e-16)
(20 3.5971e-16 3.98544e-17)
(20 -3.80431e-17 3.91071e-17)
(20 1.51885e-16 -2.56629e-16)
(20 4.35911e-16 1.1863e-16)
(20 4.98104e-17 -4.66369e-17)
(20 1.11191e-16 2.97609e-17)
(20 -2.56197e-16 2.24048e-16)
(20 5.8437e-16 -2.17169e-16)
(20 5.30914e-16 2.12641e-17)
(20 -5.11983e-16 5.40756e-17)
(20 -7.62509e-16 -8.53534e-17)
(20 -6.0274e-16 1.84008e-16)
(20 1.20467e-16 -1.46327e-16)
(20 4.99809e-16 -3.51204e-17)
(20 3.14422e-16 -2.85274e-17)
(20 6.60238e-17 1.86208e-16)
(20 -3.50483e-17 -2.17208e-17)
(20 -3.60643e-16 -3.19119e-16)
(20 1.54491e-16 9.63136e-17)
(20 2.7616e-16 8.8037e-18)
(20 -3.58695e-16 -1.23152e-16)
(20 3.4939e-16 1.28288e-16)
(20 6.8645e-16 1.0386e-16)
(20 -1.49328e-16 6.66908e-18)
(20 -2.96158e-16 3.25743e-17)
(20 -3.98212e-16 2.94517e-16)
(20 3.05122e-16 2.02036e-16)
(20 2.61319e-16 -6.38047e-17)
(20 2.61664e-16 -1.48297e-16)
(20 -3.22609e-16 -3.06732e-17)
(20 -3.60206e-16 -7.76346e-17)
(20 2.18307e-16 -1.11743e-16)
(20 -1.38326e-17 1.10295e-16)
(20 -2.65824e-17 2.95439e-17)
(20 3.35212e-16 -5.8891e-17)
(20 -2.03407e-16 2.79448e-16)
(20 -7.72718e-17 2.59655e-17)
(20 4.1444e-16 -4.811e-17)
(20 1.01739e-16 -2.46098e-17)
(20 4.45217e-16 -5.6474e-17)
(20 -4.31829e-16 1.82576e-16)
(20 -4.19932e-16 -4.86486e-17)
(20 -4.19178e-16 5.51997e-17)
(20 -1.05372e-16 3.44925e-17)
(20 3.13634e-16 -2.35794e-17)
(20 -3.57281e-16 -1.69335e-17)
(20 3.30255e-16 1.13605e-16)
(20 2.8498e-16 -1.11374e-16)
(20 5.97675e-17 -2.01224e-16)
(20 1.05803e-16 -1.894e-16)
(20 -2.8259e-16 -6.14178e-17)
(20 -1.80467e-16 -1.9976e-17)
(20 -1.00535e-17 -1.46513e-16)
(20 3.64097e-16 -1.57178e-16)
(20 -1.56677e-16 -1.40687e-16)
(20 -4.66938e-17 -9.62451e-17)
(20 -3.57472e-16 -1.6925e-18)
(20 2.52827e-16 1.63537e-16)
(20 5.02124e-17 -2.54099e-17)
(20 3.32561e-16 2.21285e-17)
(20 -7.45847e-17 -2.05093e-17)
(20 4.23297e-16 -2.04385e-16)
(20 2.91299e-16 -1.49512e-16)
(20 2.85762e-16 1.30172e-16)
(20 -1.62866e-16 -3.63856e-17)
(20 -2.3545e-16 1.13053e-16)
(20 8.63555e-17 1.27402e-16)
(20 8.22159e-17 -2.71526e-16)
(20 6.66114e-17 -1.77672e-16)
(20 8.5951e-17 1.21959e-16)
(20 -6.11694e-16 -9.61e-19)
(20 1.71105e-16 4.4263e-16)
(20 -2.4602e-16 -2.53755e-16)
(20 3.31591e-16 -2.52756e-16)
(20 -2.61499e-16 3.7753e-17)
(20 8.4747e-17 1.01454e-16)
(20 5.48643e-17 1.60721e-16)
(20 -2.39682e-17 -1.71158e-16)
(20 8.95485e-17 -1.93506e-16)
(20 1.89165e-16 4.52467e-19)
(20 -9.59492e-17 -1.80902e-17)
(20 5.31851e-16 -9.40997e-17)
(20 3.85043e-16 -6.26008e-17)
(20 2.5951e-17 6.67603e-17)
(20 -2.04715e-16 2.12956e-16)
(20 5.51912e-17 1.96877e-16)
(20 4.89326e-16 3.03851e-17)
(20 1.65461e-16 -1.36891e-16)
(20 -8.82357e-17 -3.6142e-16)
(20 -2.67604e-16 1.14526e-16)
(20 -3.59936e-16 6.58138e-17)
(20 1.58519e-16 -4.25853e-17)
(20 5.35608e-17 1.10485e-16)
(20 -2.08171e-16 8.25299e-17)
(20 -1.67272e-16 -1.19189e-16)
(20 -1.42236e-16 3.60626e-16)
(20 -5.04084e-16 -1.25945e-16)
(20 3.73043e-17 -8.85279e-17)
(20 8.8545e-17 7.32184e-18)
(20 1.017e-16 7.08712e-18)
(20 -5.18766e-16 5.72469e-17)
(20 -2.13918e-16 2.16623e-16)
(20 2.41868e-16 4.35336e-17)
(20 -9.09544e-17 -6.1981e-18)
(20 4.07413e-16 -1.92376e-16)
(20 7.73481e-17 3.70808e-17)
(20 3.35395e-16 2.43466e-18)
(20 1.9363e-16 7.49749e-17)
(20 -1.04371e-16 -2.5632e-16)
(20 -7.05447e-17 1.7482e-16)
(20 -1.2897e-16 -1.61301e-16)
(20 4.34319e-16 -2.00025e-17)
(20 4.88427e-16 -1.85434e-16)
(20 9.58662e-17 2.61078e-16)
(20 -5.40943e-16 -5.35167e-17)
(20 1.38482e-16 -2.52913e-16)
(20 2.02184e-16 2.32948e-16)
(20 3.77617e-16 5.81192e-18)
(20 9.55218e-17 3.20392e-17)
(20 2.13475e-16 4.01982e-17)
(20 -1.99088e-16 1.18658e-16)
(20 4.47777e-16 -1.99069e-16)
(20 -4.52081e-17 -4.68824e-16)
(20 6.9812e-17 2.37256e-16)
(20 -3.71515e-16 1.13625e-18)
(20 -1.69695e-16 9.88427e-18)
(20 6.5202e-17 1.68484e-16)
(20 -8.4433e-17 -4.12196e-17)
(20 -3.09836e-16 -2.8439e-16)
(20 1.58903e-16 -1.65642e-16)
(20 1.57789e-16 -1.90607e-16)
(20 7.58168e-16 1.41117e-16)
(20 -2.63118e-16 2.41412e-16)
(20 -2.1056e-16 -1.13767e-16)
(20 -3.59815e-16 1.47953e-16)
(20 -5.08108e-17 -5.56811e-17)
(20 1.31778e-16 -4.34063e-17)
(20 1.63764e-16 -2.87474e-17)
(20 -9.05636e-17 -1.48035e-16)
(20 1.02171e-16 1.12493e-16)
(20 7.05846e-17 2.56722e-17)
(20 1.7013e-16 -8.63606e-17)
(20 -3.18438e-16 -9.31164e-17)
(20 2.83382e-16 1.31206e-16)
(20 6.0845e-16 2.29433e-16)
(20 8.03087e-17 4.82947e-18)
(20 4.57625e-17 -8.19215e-17)
(20 7.68932e-17 -1.19297e-16)
(20 -4.4936e-16 -5.75512e-17)
(20 -3.55333e-17 -2.41116e-17)
(20 -1.26904e-16 1.12922e-16)
(20 4.34102e-17 -6.92255e-17)
(20 2.20337e-16 9.65003e-18)
(20 -3.43812e-16 1.39618e-16)
(20 -5.40782e-16 2.24878e-17)
(20 -2.61749e-16 1.84068e-17)
(20 -6.14177e-16 3.03652e-17)
(20 -1.95113e-16 -1.50456e-17)
(20 5.8193e-17 -8.98861e-17)
(20 -3.87708e-16 -1.61108e-16)
(20 -2.62688e-16 1.92077e-16)
(20 1.92958e-16 1.12576e-16)
(20 5.91401e-16 3.63467e-17)
(20 -1.63885e-17 2.97913e-17)
(20 1.76526e-16 -1.2192e-16)
(20 3.39521e-16 -1.11917e-16)
(20 -3.17547e-16 -1.0449e-16)
(20 6.18287e-17 -6.33908e-17)
(20 4.07012e-16 -1.72265e-16)
(20 1.34801e-16 1.39053e-17)
(20 -7.5381e-17 -2.76281e-16)
(20 -3.73813e-16 -1.30021e-16)
(20 -2.48885e-16 2.14735e-16)
(20 -4.64117e-17 1.42076e-17)
(20 1.73637e-16 1.56586e-16)
(20 -2.2538e-16 -2.21329e-16)
(20 3.22768e-16 8.01834e-17)
(20 9.52828e-17 1.36307e-16)
(20 2.33721e-17 -1.09465e-16)
(20 -8.94502e-17 -7.39863e-17)
(20 -4.84119e-16 5.15768e-17)
(20 4.59491e-18 -3.35989e-16)
(20 -9.73531e-17 -2.19195e-16)
(20 3.34405e-16 3.92757e-17)
(20 -1.11529e-16 2.42957e-16)
(20 1.55053e-16 -1.04726e-16)
(20 2.04789e-16 2.51737e-17)
(20 -3.36197e-16 2.9798e-17)
(20 -5.80338e-16 -2.18442e-16)
(20 -5.9654e-17 -8.37154e-17)
(20 3.95575e-16 9.62413e-17)
(20 2.06517e-16 -4.90017e-17)
(20 -1.10354e-16 2.00674e-16)
(20 1.17146e-16 -3.05761e-18)
(20 1.01321e-16 1.9459e-16)
(20 -9.89364e-17 5.34161e-17)
(20 -4.63079e-16 -7.3279e-17)
(20 -1.4546e-17 -1.08415e-16)
(20 -3.21249e-18 -3.50371e-17)
(20 -6.07183e-17 2.22433e-17)
(20 -1.69894e-17 -7.15672e-18)
(20 -2.06539e-17 -1.47327e-17)
(20 -3.52345e-16 1.48048e-17)
(20 4.31324e-16 5.75575e-17)
(20 6.95482e-16 -8.93356e-17)
(20 -3.28009e-19 3.7156e-17)
(20 -1.76405e-16 1.95435e-17)
(20 1.39349e-16 -1.0866e-16)
(20 -2.04987e-16 2.42968e-16)
(20 -9.46672e-17 -7.97296e-17)
(20 -1.92522e-16 -2.23176e-17)
(20 -9.90335e-17 -4.04848e-17)
(20 1.79227e-16 -1.27068e-16)
(20 -2.78201e-16 1.55674e-16)
(20 -2.34447e-16 1.3921e-16)
(20 4.96381e-17 3.15429e-16)
(20 -4.82552e-17 7.70938e-17)
(20 -3.00375e-16 -2.80692e-17)
(20 -2.00827e-16 -7.64282e-18)
(20 -6.24315e-16 1.17718e-16)
(20 1.22414e-16 2.61599e-17)
(20 4.69545e-16 -2.60269e-16)
(20 3.63765e-16 3.44661e-17)
(20 2.5319e-16 -8.06252e-17)
(20 -1.85102e-16 -1.6449e-16)
(20 3.35521e-17 1.07531e-16)
(20 -1.50087e-16 8.66053e-17)
(20 -4.69318e-16 -1.56503e-16)
(20 -2.49721e-16 -2.04456e-16)
(20 4.31878e-16 2.05007e-16)
(20 -2.30582e-16 9.165e-17)
(20 -2.29846e-17 9.50551e-17)
(20 5.01364e-17 2.03125e-17)
(20 4.80312e-16 -1.20026e-16)
(20 2.23872e-16 -1.71387e-16)
(20 -1.62638e-16 5.45813e-17)
(20 4.05472e-16 7.44982e-17)
(20 6.64679e-17 -9.13325e-17)
(20 2.04013e-16 2.07137e-17)
(20 -5.65078e-16 1.17768e-16)
(20 -7.15868e-16 1.44034e-16)
(20 -4.56752e-16 -1.34738e-16)
(20 3.42787e-16 -2.02593e-16)
(20 5.05168e-16 -9.77162e-17)
(20 3.82898e-16 1.43233e-16)
(20 -1.93306e-16 -1.94755e-16)
(20 3.34499e-16 -2.32385e-16)
(20 -1.56477e-16 1.59339e-16)
(20 -6.83284e-16 5.1807e-17)
(20 -1.19957e-16 -3.66933e-17)
(20 7.05001e-16 3.81095e-17)
(20 -3.50918e-17 1.20181e-16)
(20 -5.65547e-17 1.6703e-16)
(20 -1.85269e-16 3.02695e-19)
(20 1.67822e-16 -5.3655e-17)
(20 4.4783e-17 -1.59995e-16)
(20 -2.17409e-16 2.70752e-16)
(20 2.09794e-16 1.08391e-16)
(20 2.85624e-17 -7.96272e-17)
(20 -1.65868e-16 1.50629e-16)
(20 -1.14098e-16 1.31508e-16)
(20 -8.98458e-17 -8.43739e-17)
(20 3.6648e-17 2.53459e-17)
(20 4.45463e-16 -1.41263e-16)
(20 2.42726e-16 -2.2316e-16)
(20 1.70907e-16 2.74103e-16)
(20 1.54779e-17 -4.84863e-17)
(20 -1.35051e-16 -5.15807e-17)
(20 -2.07506e-16 3.11723e-17)
(20 -1.44934e-16 -2.68094e-17)
(20 -1.90195e-16 2.94556e-17)
(20 -2.39229e-16 -5.67392e-17)
(20 1.02538e-16 -5.45044e-17)
(20 1.80106e-16 2.14322e-16)
(20 3.59454e-17 -6.81807e-17)
(20 5.99205e-16 1.39776e-16)
(20 2.90817e-16 1.06855e-16)
(20 -2.65999e-16 -6.95014e-17)
(20 -2.25931e-16 1.02981e-16)
(20 -2.58263e-16 2.21316e-16)
(20 3.35598e-16 -2.3075e-17)
(20 2.61276e-16 -3.37777e-16)
(20 4.68558e-16 7.9482e-17)
(20 7.25729e-17 -8.53384e-17)
(20 -5.64378e-16 -2.17715e-16)
(20 -3.52733e-16 4.85347e-17)
(20 1.99984e-16 -1.8403e-16)
(20 -8.1647e-16 2.85845e-17)
(20 3.62576e-16 -1.7765e-16)
(20 -2.74423e-17 -4.96538e-17)
(20 -2.1394e-16 3.84536e-16)
(20 -2.69946e-16 1.50581e-16)
(20 -5.45501e-17 -2.17694e-16)
(20 -2.01067e-16 -1.78139e-16)
(20 -4.77852e-18 -1.06556e-16)
(20 -3.47711e-16 -1.3771e-16)
(20 6.11127e-16 -5.00512e-17)
(20 2.91635e-17 8.33647e-17)
(20 1.23146e-16 -1.57447e-16)
(20 -5.34276e-16 2.04927e-16)
(20 -2.09231e-16 1.60541e-16)
(20 -1.11108e-16 4.8595e-18)
(20 1.70665e-17 -2.70869e-16)
(20 3.48628e-16 7.14084e-17)
(20 5.63476e-16 -5.71635e-18)
(20 -4.63e-16 7.64995e-17)
(20 3.76731e-16 -1.26691e-16)
(20 2.76785e-16 7.27791e-17)
(20 -7.07702e-16 9.47266e-17)
(20 -1.97204e-16 -1.16573e-16)
(20 8.33322e-16 1.02286e-17)
(20 2.85682e-16 3.30212e-17)
(20 3.26336e-16 4.29036e-17)
(20 -1.31743e-16 1.48402e-16)
(20 -3.59976e-16 -5.73399e-17)
(20 -2.95908e-16 2.00366e-18)
(20 2.46131e-16 7.60881e-18)
(20 3.43964e-16 -3.27052e-17)
(20 1.29328e-16 -8.44112e-17)
(20 1.92823e-17 1.39575e-16)
(20 2.38439e-16 1.36123e-16)
(20 3.80883e-17 1.25163e-16)
(20 5.56464e-17 -8.66148e-17)
(20 3.97276e-17 -2.47511e-16)
(20 6.77509e-18 -5.65364e-17)
(20 1.05913e-16 1.76096e-16)
(20 1.41648e-16 1.623e-17)
(20 -3.88838e-17 1.68693e-16)
(20 -1.92545e-16 -1.2335e-16)
(20 -3.63963e-16 -1.75527e-16)
(20 -1.32637e-17 8.47854e-17)
(20 -7.85743e-17 1.0985e-16)
(20 -9.26312e-18 -3.15723e-17)
(20 1.94349e-16 5.17378e-17)
(20 4.15431e-18 -6.13861e-17)
(20 2.6139e-16 -2.76865e-17)
(20 2.4423e-16 8.64133e-18)
(20 -2.78828e-16 -6.84974e-17)
(20 -9.05866e-17 2.1853e-16)
(20 -8.87738e-17 2.12239e-16)
(20 8.04524e-17 -1.68584e-16)
(20 7.07325e-17 -1.075e-16)
(20 4.80814e-16 -3.19195e-16)
(20 3.3564e-16 -7.97511e-17)
(20 -8.96599e-16 -1.24476e-16)
(20 -3.67166e-16 -5.92754e-17)
(20 -3.33299e-17 1.02026e-17)
(20 -3.8544e-16 1.28378e-16)
(20 2.67154e-16 -1.69376e-16)
(20 -4.59892e-18 -5.74887e-17)
(20 -1.53672e-16 3.11307e-16)
(20 -4.90482e-16 1.66022e-16)
(20 -3.02528e-16 -2.47236e-16)
(20 2.79817e-16 -1.85044e-16)
(20 -1.25049e-16 -2.67708e-16)
(20 1.09475e-16 2.19141e-16)
(20 7.09067e-16 -1.46502e-16)
(20 -1.06083e-16 3.2565e-17)
(20 -6.95524e-16 2.98669e-17)
(20 -6.77545e-17 2.38142e-16)
(20 -8.39691e-17 -2.70446e-17)
(20 1.33348e-16 -1.6875e-17)
(20 -6.6238e-17 -1.66709e-16)
(20 -3.69699e-18 -1.27966e-16)
(20 3.18291e-16 -1.14994e-16)
(20 -1.19564e-16 9.73172e-17)
(20 5.17581e-16 1.41328e-16)
(20 3.9305e-16 -1.36325e-16)
(20 -6.09696e-16 2.79955e-16)
(20 -2.95371e-16 -1.72816e-16)
(20 5.02533e-16 -3.98597e-16)
(20 2.07943e-16 6.65099e-17)
(20 2.39118e-16 2.25174e-17)
(20 1.71704e-16 -1.29088e-16)
(20 -4.43028e-16 9.87825e-17)
(20 -3.02652e-16 9.07128e-17)
(20 8.23906e-17 1.03497e-16)
(20 -2.01582e-17 -4.01504e-17)
(20 1.97471e-16 -1.77418e-17)
(20 1.28597e-16 1.18708e-16)
(20 3.23624e-16 -2.51553e-17)
(20 7.45766e-17 1.23851e-18)
(20 1.82399e-17 3.83081e-17)
(20 -2.22231e-16 -1.43934e-16)
(20 -7.5287e-17 6.32654e-17)
(20 1.63124e-17 1.32755e-16)
(20 2.94137e-16 -1.79351e-16)
(20 3.75692e-16 1.70144e-16)
(20 1.5101e-16 -4.60181e-17)
(20 -6.14292e-16 -4.39818e-17)
(20 -1.49417e-16 1.39985e-16)
(20 -4.02948e-17 -1.91454e-17)
(20 -1.69991e-16 -1.21378e-16)
(20 2.34931e-17 1.38352e-16)
(20 -2.08491e-17 1.15756e-16)
(20 -1.20617e-16 -4.08601e-17)
(20 -9.97408e-18 1.29199e-16)
(20 -3.31653e-16 1.4415e-16)
(20 4.32621e-17 1.94968e-16)
(20 2.26922e-16 1.40607e-16)
(20 -3.13866e-16 -1.52963e-16)
(20 -1.43815e-16 -1.11434e-16)
(20 1.64507e-16 -3.97518e-16)
(20 7.0874e-16 -1.80232e-16)
(20 -2.26235e-16 1.9809e-16)
(20 -3.59186e-16 -5.29696e-17)
(20 -4.99523e-16 -4.39939e-17)
(20 1.51235e-16 3.12527e-16)
(20 -4.16905e-16 -1.80024e-16)
(20 3.515e-16 -2.28143e-17)
(20 3.05405e-16 1.50839e-16)
(20 -1.49163e-16 1.75136e-16)
(20 4.08618e-17 1.38677e-16)
(20 -1.52824e-16 -2.79415e-16)
(20 -3.22683e-16 -1.15193e-16)
(20 4.2466e-16 7.88395e-17)
(20 4.43328e-16 -1.19674e-16)
(20 -7.79603e-17 -1.24384e-17)
(20 -9.78697e-16 9.7522e-17)
(20 1.67645e-16 1.61421e-16)
(20 6.29006e-17 1.42622e-16)