/*--------------------------------*- C++ -*----------------------------------*\
| =========                 |                                                 |
| \\      /  F ield         | OpenFOAM: The Open Source CFD Toolbox           |
|  \\    /   O peration     | Version:  2312                                  |
|   \\  /    A nd           | Website:  www.openfoam.com                      |
|    \\/     M anipulation  |                                                 |
\*---------------------------------------------------------------------------*/
FoamFile
{
    version     2.0;
    format      ascii;
    arch        "LSB;label=32;scalar=64";
    class       volScalarField;
    location    "100";
    object      p;
}
// * * * * * * * * * * * * * * * * * * * * * * * * * * * * * * * * * * * * * //

dimensions      [0 2 -2 0 0 0 0];

internalField   nonuniform List<scalar> 
208838
(
83425.635313101
83426.3567228097
83426.3433878661
83426.5447129505
83426.7393814726
83426.7595887208
83426.7647243672
83426.764824601
83426.3197412479
83426.3303601267
83426.3447027245
83426.367090946
83426.4196052164
83425.5006410775
83425.4904756837
83425.4925062583
83425.4966571247
83425.4991040928
83424.9085487289
83424.9491489924
83424.9516021426
83424.9558891809
83424.2754513539
83424.6817675812
83424.9100852233
83424.9528287563
83431.5668927882
83431.897626249
83432.1507739392
83432.7372785297
83435.1610813464
83427.1141764912
83426.8410194194
83426.6518137896
83426.5012343907
83426.2771737704
83429.0854591068
83429.1825554672
83429.2189565096
83429.2491763931
83428.8803569857
83438.848605919
83437.6335784761
83436.3906064387
83435.4903057631
83435.0012508593
83440.1547428661
83435.915756243
83427.3046270167
83429.0517719645
83427.9373266517
83434.5681349331
83423.7121899657
83426.0643940834
83425.730996827
83425.8484687565
83427.1082605746
83426.1338086745
83426.1415969334
83428.2270371889
83434.4865038743
83424.5433672433
83426.443886609
83436.0807882059
83428.4323742111
83426.530884464
83426.289600502
83426.6020529067
83426.885882357
83426.3065795982
83426.0783118217
83426.6830011599
83425.6766064669
83425.5979689214
83424.3771413386
83424.42276498
83424.8512734752
83424.8036343338
83425.0102112529
83425.0404925108
83425.0474761699
83425.0500421641
83425.0492455347
83425.2783086577
83425.2744087164
83425.264526862
83425.2450967536
83425.1335118721
83424.1837454903
83424.2717169168
83424.288441077
83424.2971458178
83424.3009637971
83424.2764286317
83424.2730342489
83424.2650372969
83424.2505252258
83424.1889496754
83424.1810278225
83424.2428774924
83424.2628095133
83424.2731153856
83424.2771103549
83424.680541382
83424.6807721125
83424.6765133797
83424.6659013286
83424.6408073841
83424.5235149168
83424.5761578678
83424.599739439
83424.6104968173
83424.6135826361
83425.190116533
83425.1828270219
83425.1653340329
83425.1335310606
83425.0649628717
83425.4736486388
83425.1595239372
83425.0621247995
83425.0490511988
83425.0873626193
83425.0758916984
83425.3540471438
83425.3684672088
83425.3755890505
83425.416908553
83425.409392372
83425.414194981
83425.4259661838
83425.4239818814
83425.4629657172
83425.4698606165
83425.4458180731
83425.4529113597
83425.4005898887
83425.3280810361
83424.8037550922
83425.0439292224
83426.8943901527
83425.4708192851
83425.2821606163
83423.9216970096
83422.6892857566
83424.9030588847
83426.0899624979
83429.1905796708
83427.5473799214
83425.646419515
83423.7440570546
83423.0481104127
83426.8511313043
83425.6882733787
83425.5182426166
83433.2007250715
83427.4541503794
83437.2777060719
83428.599634099
83426.8369642154
83426.1537441306
83426.5486597025
83424.8344341469
83424.6721156941
83425.0442001558
83425.1308880674
83423.9928129863
83423.9643970402
83423.1077918652
83423.1132712752
83423.5650445964
83423.5675535101
83423.9470746618
83423.9312455792
83423.1504334672
83423.1867007181
83423.4378140231
83423.5085474656
83423.5249328003
83423.5334793666
83423.5369319015
83423.5188968534
83423.515390047
83423.5069439247
83423.4902298206
83423.4091457349
83422.6309899209
83422.7085539968
83422.7258516333
83422.7344657892
83422.7379615692
83422.7729158014
83422.7695000073
83422.7610160785
83422.7443010737
83422.6748304747
83422.8947884006
83422.9763918664
83422.9951480363
83423.0050889988
83423.009054474
83423.6578139405
83423.6542754673
83423.6448255046
83423.6268247098
83423.5563301765
83423.9009723612
83423.991351579
83424.0082853083
83424.0175926564
83424.0211350613
83424.4451729444
83424.4412135746
83424.431554065
83424.4124491498
83424.334790439
83424.8318763971
83424.9507210161
83424.9732985802
83424.9854626681
83424.9905092766
83424.9600918619
83424.9552519824
83424.9433473377
83424.9174545332
83424.8199110061
83425.0148220602
83425.1156384059
83425.1489141652
83425.1621055846
83425.1662951716
83425.4173907648
83425.4122424466
83425.4003409626
83425.3737507691
83425.2190103607
83424.9815275496
83424.5180229623
83424.7972852984
83424.8516415567
83424.9079409288
83424.9199638471
83425.2073454612
83425.2030566395
83425.1821205385
83425.1608204315
83425.5653194644
83425.5907416719
83425.6173779838
83425.6314824283
83425.0703743247
83425.0595249909
83425.0156678187
83424.9863797616
83424.7905959472
83425.3785586563
83424.774393828
83424.1839828831
83423.8889776036
83424.3822846357
83423.9660790163
83423.9085594179
83423.3733874721
83423.5468737136
83423.8182722544
83423.8763929189
83421.8775933857
83422.7341222906
83423.2141665704
83421.7226828283
83422.4752040576
83422.6025924582
83414.3101954561
83400.0491856937
83436.3265082995
83423.7512352964
83433.2775150776
83436.9354047839
83455.3168233302
83442.6359407762
83423.5338927834
83437.4128821709
83429.667663526
83427.0299377369
83427.6304290767
83427.8900756603
83425.4333394261
83425.1540453302
83423.4865599589
83423.6010383567
83423.5830229593
83423.5005871708
83422.5805509686
83422.6212593589
83421.7273198104
83421.6980878268
83422.2943939207
83422.2941626152
83422.7780749589
83422.794352751
83422.0359756875
83422.0017521219
83422.3766376807
83422.4311884161
83421.5873438316
83421.5231803997
83421.7627847901
83421.8291104966
83421.8469650946
83421.8558753813
83421.8594425193
83421.9181429085
83421.9147990273
83421.9062684324
83421.8886827037
83421.8227609306
83422.1016119242
83422.1884444603
83422.2078389856
83422.2178113837
83422.2218125971
83422.8134207247
83422.8091193945
83422.7982773727
83422.7794289527
83422.6742067326
83423.3917726723
83423.4928410072
83423.5106434656
83423.520952459
83423.5250502403
83424.4066291801
83424.4017008675
83424.3888992952
83424.3686802272
83424.2440905494
83424.5918643817
83424.7138302723
83424.7339945713
83424.7463351135
83424.7511554569
83425.9449380069
83425.9389514627
83425.9228464328
83425.8981442678
83425.7453651099
83425.7492934035
83425.8979864856
83425.9222003044
83425.9367890881
83425.942432485
83425.624466305
83425.6180088845
83425.6024205693
83425.5723191857
83425.4160147891
83426.5024509394
83426.6851169099
83426.7175629283
83426.7375982281
83426.7456903785
83426.1565243117
83426.1470632918
83426.1277347772
83426.0974426946
83425.8785797934
83427.1073380825
83427.3834325497
83427.4216441481
83427.4501512359
83427.4635687186
83426.7323936284
83426.710240462
83426.676601429
83426.6385369105
83426.0387087143
83426.0732024211
83426.1158719611
83426.1345524531
83427.3798660312
83427.3540031003
83427.3035886897
83427.2457405926
83427.9682844121
83428.0260295169
83428.0716902845
83428.0996440412
83429.2786530332
83429.2605086523
83429.2211431464
83429.1705409567
83428.8183389385
83427.5985064305
83426.9523941633
83426.0069277697
83426.4643930084
83425.5763829623
83425.0715883974
83424.7303887372
83424.8182441839
83424.1490901232
83424.0379286196
83423.7859025779
83423.8915503231
83423.223115904
83423.0928693453
83422.6342742682
83422.9897782621
83423.1492898531
83422.8580178797
83425.3806353785
83424.2809565751
83423.3936802935
83425.0614189646
83413.6032536026
83418.5738433587
83413.1921589582
83399.4302233465
83437.4980892531
83453.1237460117
83436.1426621728
83429.2269573519
83429.3757337417
83430.597319064
83430.7939487526
83430.5479261628
83426.4530774918
83425.7370590034
83422.2922176345
83424.6856501149
83424.0521376242
83424.2618289742
83425.318468748
83425.0922513488
83424.465956035
83420.0206217986
83424.7314803155
83424.0755119313
83423.8564518224
83426.6898778412
83427.4833013179
83424.0349185461
83423.8511121479
83422.2630709098
83422.2568446387
83422.3708423408
83422.3491830459
83421.1984812462
83421.2439956782
83420.3848421292
83420.3973809095
83420.9221875446
83420.9286569526
83421.5047232618
83421.5228024825
83420.6528858437
83420.6408932246
83421.1486668963
83421.1840433274
83420.2623701941
83420.2207162403
83420.5800760126
83420.65184494
83420.874024965
83420.9358684655
83420.9534599678
83420.9616654884
83420.964843734
83420.8877126476
83420.8841771062
83420.8752069758
83420.8571613148
83420.8008237434
83419.7521433926
83419.8070289983
83419.8258302755
83419.8350793089
83419.8386454426
83419.9160714655
83419.9130439013
83419.9053890888
83419.888890221
83419.8334966876
83420.1615859038
83420.2516738075
83420.2711021884
83420.2809615364
83420.2850844165
83421.3052928883
83421.3014156276
83421.2918404622
83421.2730298666
83421.1846449299
83421.7846968274
83421.8901092709
83421.9090385564
83421.9200044885
83421.924350996
83422.8882948663
83422.8832953772
83422.8702307966
83422.8497432645
83422.7180333306
83423.5999301894
83423.7298348475
83423.750639963
83423.7637741926
83423.7687832034
83425.2394628335
83425.2333980337
83425.2167352128
83425.1918736194
83425.0282456811
83425.5966252395
83425.7528220188
83425.7770423707
83425.7931980269
83425.7991261407
83427.9436132435
83427.9363468687
83427.9156159167
83427.885786843
83427.6990756574
83427.5914093568
83427.7704073946
83427.8002182584
83427.82042542
83427.8275735275
83427.4292882372
83427.422181901
83427.4028329647
83427.3731796365
83427.187844136
83429.4127267686
83429.6433470161
83429.6815781587
83429.7071874268
83429.71616783
83428.5101579584
83428.4998920291
83428.4730985369
83428.4318816783
83428.2081235449
83430.6249574471
83430.9141448943
83430.9681214857
83431.0033456023
83431.0164020388
83434.2973400339
83434.2801170441
83434.233110235
83434.1613867304
83433.7839326586
83430.9170542455
83431.3876947966
83431.4554884819
83431.5092378015
83431.5345492771
83429.6411714887
83429.6024454828
83429.5387470638
83429.4571457391
83428.480550685
83428.5613986069
83428.6243885844
83428.6598443193
83429.8381076448
83429.7888175226
83429.7061510478
83429.5929891221
83430.9760578092
83431.0869836001
83431.1745349829
83431.2297978194
83434.1127887554
83434.0776038065
83434.0057118468
83433.9184143846
83433.3071813791
83430.320330265
83429.0913884186
83427.4920564444
83428.1829188918
83427.3856574558
83426.8566914509
83425.6955083866
83425.9278126261
83424.542513554
83424.3082003899
83424.2092631494
83424.3676400428
83423.0376527276
83422.9081611211
83423.0962619604
83423.1635511976
83421.9700920111
83422.1044551858
83422.5807759077
83422.5116932965
83422.1163468302
83422.7362835566
83424.1088973779
83421.7931638012
83421.953308783
83421.9180123499
83407.944788592
83417.4015169777
83415.8441433587
83394.0397919284
83424.2107277111
83419.8214670905
83427.2416949021
83432.022987506
83453.7445884135
83445.0837713351
83426.6454540436
83442.6227316381
83427.5323838884
83422.958502311
83422.1271726033
83422.6039588573
83419.6138243511
83419.4607335913
83420.9007335888
83420.9049447198
83419.9055872634
83419.9422753908
83419.0473012226
83419.032764968
83419.4592145069
83419.428509964
83420.0137380092
83420.0371350073
83419.1878162729
83419.1848136783
83419.7652191674
83419.7396735176
83418.7301081648
83418.7393392825
83419.2203961448
83419.1897769024
83419.5431387575
83419.6133895551
83418.5110827833
83418.4512171826
83418.6889071656
83418.747462194
83418.7677426453
83418.7774414836
83418.7814408778
83418.8429186404
83418.8395878175
83418.8326262422
83418.817933115
83418.757206086
83419.0231280188
83419.1115718789
83419.1296948272
83419.1395174985
83419.1437243122
83419.7968633248
83419.7906291143
83419.776567242
83419.7528983082
83419.6254072729
83420.7628034402
83420.8824952054
83420.9030385001
83420.9148343937
83420.9196183512
83421.8465019198
83421.8412014511
83421.8273485447
83421.8060105168
83421.657914803
83422.9221172394
83423.0997967745
83423.1241546941
83423.1415628158
83423.1477927557
83424.3316197049
83424.3255684871
83424.3090075866
83424.2848343133
83424.1199437117
83426.2256949122
83426.4258946735
83426.4552408898
83426.4762220697
83426.4835409176
83427.4755418604
83427.4681108316
83427.4467930616
83427.4165812355
83427.2200850837
83430.5388930785
83430.7560885476
83430.7971451281
83430.8255395323
83430.8350242425
83431.1725440837
83431.1632716502
83431.1356840101
83431.0947593754
83430.8890775697
83430.3698999814
83430.5824528426
83430.6227724874
83430.6494013279
83430.6584760762
83434.8200058865
83434.8084595859
83434.7739735351
83434.7190097447
83434.4644835762
83432.6471796601
83432.9382177926
83432.987960259
83433.0212855307
83433.0325689951
83437.6002844872
83437.5857328116
83437.541777531
83437.4759413709
83437.1032788589
83443.0417772926
83443.491216728
83443.5744527723
83443.6300169354
83443.6481111504
83438.3579857178
83438.3357591187
83438.2750273616
83438.1834680866
83437.7146649476
83442.2483404029
83442.7959760185
83442.9020096173
83442.9761436811
83443.00319458
83436.7137308874
83436.6660840194
83436.571936067
83436.4656833163
83435.7230212792
83431.3979237903
83429.6648009238
83430.3200906137
83430.4774819423
83430.5846673627
83430.6532240674
83432.577530796
83432.5014622244
83432.3858708121
83432.240754941
83432.7428321172
83432.9201919355
83433.0655746892
83433.1689323022
83430.6521388408
83430.5583035667
83430.4295909838
83430.2311314758
83429.4143546429
83431.7272832108
83428.1299157133
83426.6901535739
83427.523371271
83428.5887131732
83426.0744609301
83425.5727028338
83423.4107595014
83423.8186601848
83424.454289207
83424.1215223885
83421.92697127
83422.2846887597
83422.7970561765
83422.5102553702
83420.6065228128
83420.7838025683
83421.5792025594
83421.6476366566
83420.3494826062
83420.043667732
83420.5072660869
83420.7265704184
83417.7434753303
83419.0260531639
83418.0092682941
83415.3269609223
83420.0658571809
83419.0426112726
83415.0945441726
83406.351765114
83411.4199504241
83416.9489828755
83415.8531855541
83412.2675584451
83422.8343785983
83437.6268290287
83425.9751919471
83421.2387301951
83420.7879803136
83422.5212342335
83421.090483502
83419.4737841425
83418.3962257591
83419.2087016229
83417.8114498772
83417.005146965
83417.8457226372
83417.987129778
83418.3307630587
83418.3799115215
83418.7417589294
83418.7240346878
83417.8971281339
83417.844860737
83418.1444996931
83418.217683952
83417.3112387814
83417.242979518
83417.7009432936
83417.7014975089
83418.074655253
83418.069376917
83416.7731730581
83416.8222495384
83417.3538011527
83417.4152322617
83417.811480281
83417.8743475989
83417.8827643928
83417.8902294926
83417.8976214788
83417.8686622671
83417.8632108306
83417.8519824728
83417.8310556753
83417.7311074014
83417.4120228391
83417.4586994151
83417.3880153523
83417.3454018851
83417.3287724133
83416.8094594234
83416.8018688736
83416.7782995807
83416.7560186557
83416.8039611294
83421.2692757028
83418.4767344518
83418.0170944387
83417.7749832144
83417.6510414638
83417.772892419
83418.001264294
83418.5143261207
83419.3629999429
83420.1345787327
83420.020217579
83416.7832258659
83416.5390375856
83420.8483053834
83413.2761507663
83416.0877129275
83415.801445273
83416.1417818423
83416.2432376859
83416.308655133
83416.3376005498
83414.7251623268
83414.5844905125
83414.305169867
83413.7720324621
83412.0862995843
83416.1172757694
83416.2369182801
83416.2775447968
83416.2889259516
83416.3195532097
83418.0856182295
83418.0477171791
83418.0332295571
83418.0350021265
83417.8718404703
83418.5588592523
83418.7803765656
83418.8103794772
83418.8310935791
83418.8428553555
83419.6866781835
83419.6776996316
83419.6577973263
83419.6335789679
83419.4279960558
83420.5358003044
83420.6935021863
83420.7155618466
83420.7305614366
83420.7371958546
83421.9030392094
83421.8953644563
83421.8761369911
83421.8500873891
83421.6554292625
83423.1632446025
83423.3958393455
83423.4288369902
83423.4541351672
83423.4635550656
83425.0267127807
83425.0192704095
83424.997380464
83424.9681349722
83424.7584643916
83427.4301867047
83427.688254221
83427.7259194025
83427.754041526
83427.76325069
83429.6763683692
83429.6672646305
83429.6400726927
83429.6027748089
83429.3626260194
83434.0113525129
83434.278659251
83434.3305736804
83434.3667699502
83434.3784787313
83435.8560927324
83435.844116452
83435.8073666909
83435.7495769247
83435.5135708895
83435.646792459
83435.8776106264
83435.9352589942
83435.9709061859
83435.9826526971
83443.0424493224
83443.0272579342
83442.981279282
83442.8996195759
83442.6378312914
83440.3279003127
83440.6383225984
83440.71312058
83440.7575601716
83440.7724035652
83449.0986422877
83449.0805255066
83449.0267119626
83448.9307999951
83448.5705781817
83459.834827064
83460.1917944092
83460.2928679524
83460.3485250556
83460.366627169
83451.2573655456
83451.2363819064
83451.1689274156
83451.0730591877
83450.581411684
83459.4228424111
83459.7780172365
83459.8696873128
83459.9422265884
83459.9580232468
83447.6731529067
83447.6485561393
83447.5557312114
83447.459677077
83446.874493371
83437.668215475
83438.3915859114
83438.5241997206
83438.6449189995
83438.7027079635
83439.1771195024
83439.1182661112
83438.9847302026
83438.8254224651
83438.1140140417
83430.589347955
83428.068132019
83428.9464095832
83429.1638203665
83429.2956146444
83429.4039196433
83432.1902198368
83432.0675193833
83431.9017380256
83431.6902138584
83428.5442178457
83428.7499724818
83428.9030469559
83429.0383374839
83426.589975131
83426.4624943206
83426.3482141282
83426.1813905694
83425.4280988545
83427.2227592087
83421.7796048343
83423.6569562261
83424.5812998659
83426.137227312
83422.0722730695
83421.3449435652
83418.0680360735
83418.8489101369
83422.1729981913
83421.5842678506
83418.2838827598
83418.8962224566
83421.1033564835
83420.5818752676
83417.5406562763
83417.8279173449
83419.7635053452
83419.614177561
83417.1964675672
83417.1666926124
83418.4511722494
83418.3475581859
83413.9580479079
83415.9176664891
83419.1297263315
83421.1069036437
83421.5321121565
83417.4939158629
83415.6576603344
83415.2667712252
83412.7646067999
83412.8570894939
83414.3479632052
83412.355651206
83412.9020969954
83413.773006537
83415.6798779626
83414.4953969544
83416.4160282419
83430.1154904407
83422.7313421969
83418.2129827086
83416.7885304767
83420.3108190868
83426.2384253945
83415.0072642981
83413.81520327
83415.1758562045
83414.2335539463
83413.0298894227
83413.304912896
83423.8281886854
83418.7907909717
83415.4314658421
83414.6368303745
83418.363956673
83423.3859858192
83412.5827968691
83411.5696330546
83412.9137453376
83411.4964501832
83407.5063890814
83404.2361072559
83410.9736884323
83411.6082042914
83415.1908532721
83432.2355364433
83435.3899897789
83420.7937146466
83417.6734949318
83417.7849580106
83418.2053342997
83416.6460918536
83416.3244011596
83416.2047070132
83416.3151454542
83416.5831891195
83416.6029872355
83415.2632845829
83415.2367832866
83415.0565568865
83414.9046628996
83413.1089100884
83408.542524669
83412.7306876031
83413.5066722391
83414.6763220226
83413.7644962685
83408.4674823436
83414.2429610918
83415.9682988426
83414.6812362051
83420.0712787043
83417.8048197729
83417.5365730917
83417.9755292141
83417.7149007752
83418.0562509806
83418.9967047215
83419.2456722257
83419.2756083079
83419.3054298331
83419.3343529452
83418.4191494518
83418.3709246745
83418.3393066059
83418.3070909838
83418.1775732054
83418.4352486453
83418.8195379953
83418.9190909446
83418.974539089
83419.0173774847
83419.8550856487
83419.8308547362
83419.7933955246
83419.748112721
83419.4420608374
83420.3383429348
83420.5326266533
83420.5555087954
83420.5776568932
83420.5875037162
83421.8451174477
83421.8320991763
83421.8037006962
83421.772195323
83421.5188184623
83423.1123942423
83423.4484305176
83423.4917281329
83423.5292796605
83423.5468261909
83425.6458920933
83425.6343791216
83425.6021231619
83425.5602648034
83425.2817881739
83428.147225488
83428.48966892
83428.545117663
83428.5867999795
83428.6013539761
83431.6864533719
83431.6748681743
83431.638565642
83431.5891660866
83431.2732218178
83436.7168637888
83437.1064024625
83437.1716062865
83437.2184813805
83437.233148041
83441.2761105178
83441.2615546626
83441.2154701289
83441.1435505323
83440.8448356153
83442.903875304
83443.1623683602
83443.2445081844
83443.2913819386
83443.3065943098
83454.3480470615
83454.3313404272
83454.2811856607
83454.1786973934
83453.924167404
83452.8752752596
83453.1427247566
83453.248886437
83453.3011904081
83453.3188651074
83468.0080833181
83467.9943665528
83467.9533135075
83467.8604189763
83467.6333265732
83488.6754519946
83488.3327926472
83488.3172066786
83488.2952276579
83488.2875723283
83474.8053503705
83474.7994804756
83474.7741346757
83474.7162785714
83474.6503749963
83492.6627592095
83492.6309210011
83492.6304088521
83492.6181301941
83492.6105728393
83469.0802598899
83469.0803720721
83469.0271313899
83468.9555375493
83468.5337277573
83450.2097443651
83450.9295483079
83451.0263651407
83451.1193000067
83451.1382429486
83450.560494981
83450.5570769877
83450.5148725058
83450.4816943425
83450.0183394298
83435.48850163
83436.2260704536
83436.3152603533
83436.4091667899
83436.4661632555
83425.7770597648
83425.7451276599
83425.7083990324
83425.7062503178
83425.3908943453
83420.8528999014
83416.7508343566
83419.0939523636
83419.4971875567
83419.744409744
83419.9039714173
83422.2494402207
83422.1452541277
83422.0359266144
83421.9243581115
83410.8826183898
83410.9503059736
83411.0032174221
83411.1035761323
83412.8899472807
83413.0000367613
83413.2662805039
83413.755837686
83416.9258489361
83410.7382395045
83410.992493944
83421.7620277914
83415.237693984
83414.9659438782
83414.0162126766
83407.6005999717
83412.5162999896
83410.3713713472
83408.3362305573
83422.3557225982
83399.0118225782
83398.6998736185
83391.6908657669
83389.5748365299
83389.9385022628
83389.2794060422
83402.719757662
83402.2650925063
83412.8508810799
83413.1831391775
83408.852000406
83408.4894880483
83414.2588115245
83415.0680478999
83410.5788883648
83410.1073281859
83414.5795425493
83414.9841839438
83411.1308898308
83410.7458127906
83413.4845023587
83414.0511698261
83409.7625551364
83406.6228895287
83417.1332930685
83415.350408331
83412.9347584963
83417.3566657251
83408.8688891076
83414.2752081689
83410.6719396824
83408.8807224839
83405.5652426439
83406.4738674228
83403.9168162493
83403.2148468198
83410.5161626246
83410.7574256022
83409.6559981427
83409.3263952471
83413.1124744639
83413.4265299156
83412.6697117752
83412.8128219807
83410.7467948625
83411.380404006
83410.303706175
83408.294922149
83399.3803393366
83409.1641978358
83410.8919782712
83399.9801128989
83385.4280522445
83408.8255417762
83410.8243543123
83405.1852076809
83389.290105139
83403.9949470564
83417.5107595645
83422.1829393337
83432.5192260774
83423.2676370183
83427.0045254984
83419.9933569629
83421.8128666492
83432.3442816711
83414.0075195959
83414.295571988
83412.9455373666
83405.7495108831
83406.6922700666
83413.114903775
83414.9352383964
83420.5829387671
83414.861675002
83415.2226902002
83415.8232648025
83415.4528388161
83418.5308522899
83417.280233106
83416.5579987156
83416.1773162745
83417.5160988249
83417.4548991459
83417.766333426
83417.3568195028
83417.6482280103
83418.4679108736
83419.4287899427
83418.6551175063
83419.442189452
83419.7036894537
83419.7715379519
83419.8014120682
83419.8325352511
83420.7887121118
83420.7627611235
83420.7219240862
83420.6782133285
83420.4090411617
83421.6966085274
83422.0493910207
83422.1055505495
83422.1550174879
83422.1881730976
83421.2278344601
83421.1872447776
83421.1455605467
83421.0754484875
83420.8149236583
83419.8063029953
83420.4801325432
83421.2361510339
83420.4941492038
83421.8206254482
83422.1899196993
83422.2888022742
83422.3482613925
83422.3942459319
83423.5674043506
83423.5258900342
83423.459432561
83423.3780125711
83422.8760935467
83425.0316029095
83425.4758990213
83425.5347731953
83425.5853525776
83425.6095806962
83427.9789572208
83427.9444262473
83427.8753513808
83427.7957616992
83427.201437198
83431.8998442421
83432.3320038403
83432.4065699914
83432.4609938096
83432.4799687366
83437.4415319781
83437.4179032947
83437.3490061171
83437.2575188841
83436.7213734965
83444.4442654283
83444.8749896938
83444.953018802
83445.0086422981
83445.0254682396
83451.3880679275
83451.3718506717
83451.3200336444
83451.2301922486
83450.9377695551
83465.7567780544
83465.9146276432
83465.9892037798
83466.0298846541
83466.0410337403
83470.526804812
83470.5163749865
83470.482838111
83470.4087901716
83470.2404049384
83494.2912439743
83493.6313148467
83493.5851499453
83493.5446636722
83493.5298100378
83526.4059296471
83526.4691374879
83526.6391316738
83526.9249153135
83528.1525859553
83517.0041739559
83516.3181786363
83516.1553061216
83516.052000884
83516.0129377698
83534.2420198008
83534.2968259793
83534.450232463
83534.759728569
83536.0757784666
83518.1890085547
83517.8014613281
83517.6711458292
83517.6001708764
83517.5718329353
83496.7216560896
83496.7323676434
83496.762949523
83496.841963668
83497.1279989254
83482.7920684929
83482.8351143279
83482.8033196288
83482.7963810366
83482.7860454723
83463.8895230833
83463.8847764191
83463.8720177982
83463.9541329872
83464.1892994916
83468.3069582665
83468.9642572465
83468.9998502211
83469.0305938389
83469.0226238765
83463.4677229654
83463.4651307784
83463.4432709178
83463.4466185503
83463.2967826959
83449.2299586238
83449.5477694367
83449.5093060584
83449.508600631
83449.4978343062
83436.0640917443
83436.0607355084
83436.0487686123
83436.1513297246
83435.954935303
83430.6938470939
83431.2803051797
83431.2854441271
83431.2963252861
83431.290070429
83419.9726929293
83419.9728433978
83419.9487480844
83419.9401228683
83419.8344036567
83412.3934856383
83412.6818337785
83412.7524763969
83412.7956016089
83412.8113904993
83409.1681736803
83409.1302595708
83409.0811457574
83409.0001196561
83408.8090297373
83408.4654087884
83408.5335285597
83408.6676489661
83408.7340069519
83408.8167734731
83401.1865804357
83401.0907213658
83401.0763215742
83400.9801356775
83401.7673999547
83400.0268532506
83399.4428378272
83400.8674461997
83401.3615026251
83401.6278982989
83401.7571303166
83401.6504583496
83401.5640833101
83401.4415949484
83401.1480481413
83390.4477657249
83390.6104746511
83390.6292215725
83390.6951156397
83389.2064545053
83388.9905086142
83388.6025191026
83387.8910043836
83385.1608924602
83389.9494263676
83389.9634102453
83380.5452751589
83381.9432546954
83381.1138587401
83373.1966640091
83372.988410027
83372.0241514423
83371.2218779785
83364.5619377015
83364.3287798992
83383.1537986607
83383.4557067999
83398.3605528073
83398.2104478458
83393.7711403289
83393.1167747968
83403.8853297168
83403.8154397233
83399.5139765129
83399.5420050464
83406.2159847736
83405.4516709501
83399.1077978206
83401.9500122114
83407.4202717573
83406.6288850594
83401.9012853762
83404.9588679227
83407.3911204397
83398.8640508355
83390.6077514084
83400.2242361336
83396.038703358
83393.3188890754
83390.7151790627
83391.9759459913
83389.0431234237
83389.0438601449
83401.9584740151
83402.5135405482
83400.9210257113
83400.1651974515
83408.3339741009
83408.6004094695
83407.7277847264
83407.1635699617
83408.8748366997
83408.5824193068
83409.6305189722
83405.6031710262
83406.6347417742
83411.3707536274
83412.4962514159
83411.7224889377
83417.3144054274
83415.3177028979
83415.1109097955
83414.0782134721
83418.0931861669
83417.3949414142
83416.42879087
83415.7078543583
83415.6850601499
83416.408251291
83417.1762258078
83416.7165675118
83417.886933048
83418.2107376606
83418.7015972283
83418.3798078407
83419.1636246456
83419.4655194871
83419.7920548782
83419.4332134826
83418.9138938588
83419.5304715568
83421.5329131673
83420.4992975053
83422.3298855524
83422.8482256444
83422.9873859743
83423.0707426032
83423.1316459007
83424.7663532403
83424.7082167974
83424.6138480814
83424.4975501041
83423.8073752869
83424.2827545263
83425.213691577
83425.3760397913
83425.5080998287
83425.5925435176
83423.2156266423
83423.1295375223
83423.008197107
83422.8077149021
83422.0558108319
83419.4998857822
83421.1248624561
83419.4077972518
83417.0564446691
83420.6098613278
83423.820088558
83425.0806881057
83425.3009642431
83425.4838767259
83425.6106842744
83422.1938675816
83422.0689281772
83421.9105372811
83421.6411139065
83418.8022193629
83419.1084463821
83419.2994855097
83419.4614256535
83423.6627353823
83423.4883123225
83423.26720908
83422.9907683551
83421.5339267501
83417.5282357872
83412.4161505149
83415.4101913013
83407.1338887208
83407.9526735358
83412.1091497663
83413.3475336537
83413.6245998776
83413.8065665702
83414.0100458426
83418.3036881121
83418.0903376932
83417.8525223753
83417.5540163943
83415.5268786525
83429.9452063525
83431.3598184713
83431.5028262488
83431.6585332986
83431.7618673038
83455.9713056324
83455.9720808477
83455.9182060091
83455.9215645413
83455.3145975728
83488.8097097483
83488.5025706958
83488.3892393602
83488.3304747847
83488.3009631521
83515.6623817961
83515.7193565456
83515.8693025958
83516.1256596205
83517.1092428767
83554.8638353436
83552.633327854
83552.0936956141
83551.8193800937
83551.7220511689
83559.0701002958
83559.175005983
83559.4764560608
83560.0719944795
83562.6063106261
83562.5913500973
83560.305222373
83559.7597983601
83559.4836103915
83559.3865888084
83550.6883609417
83550.7624734312
83550.9701373417
83551.3856795632
83553.047860754
83576.3380833768
83573.4606078392
83572.9871467692
83572.7233490549
83572.6354928963
83552.7653511526
83552.8425601392
83553.0590497474
83553.4254173339
83555.6891729165
83527.4754694445
83526.5965018792
83526.452859404
83526.381317291
83526.3558294481
83503.7616937452
83503.7854006291